version 2
run ping_H0-H3-0-20120515-16:17:03-4603
attr configname ping_H0-H3
attr datetime 20120515-16:17:03
attr experiment ping_H0-H3
attr inifile omnetpp.ini
attr iterationvars ""
attr iterationvars2 $repetition=0
attr measurement ""
attr network Homenet
attr processid 4603
attr repetition 0
attr replication #0
attr resultdir results
attr runnumber 0
attr seedset 0

vector 282  Homenet.room_B.eth[3].mac  framesSent  ETV
vector 284  Homenet.room_B.eth[3].mac  bytesSent  ETV
vector 339  Homenet.living_room.eth[2].mac  framesReceivedOK  ETV
vector 341  Homenet.living_room.eth[2].mac  bytesReceivedOK  ETV
vector 345  Homenet.living_room.eth[2].mac  framesPassedToHL  ETV
vector 352  Homenet.living_room.eth[3].mac  framesSent  ETV
vector 354  Homenet.living_room.eth[3].mac  bytesSent  ETV
vector 31  Homenet.room_A.eth[2].mac  framesReceivedOK  ETV
vector 33  Homenet.room_A.eth[2].mac  bytesReceivedOK  ETV
vector 37  Homenet.room_A.eth[2].mac  framesPassedToHL  ETV
vector 156  Homenet.kitchen.eth[2].mac  framesSent  ETV
vector 158  Homenet.kitchen.eth[2].mac  bytesSent  ETV
vector 185  Homenet.office.eth[1].mac  framesReceivedOK  ETV
vector 187  Homenet.office.eth[1].mac  bytesReceivedOK  ETV
vector 191  Homenet.office.eth[1].mac  framesPassedToHL  ETV
vector 310  Homenet.living_room.eth[0].mac  framesSent  ETV
vector 312  Homenet.living_room.eth[0].mac  bytesSent  ETV
vector 461  Homenet.Host4.eth[0].mac  framesReceivedOK  ETV
vector 463  Homenet.Host4.eth[0].mac  bytesReceivedOK  ETV
vector 467  Homenet.Host4.eth[0].mac  framesPassedToHL  ETV
vector 72  Homenet.room_C.eth[2].mac  framesSent  ETV
vector 74  Homenet.room_C.eth[2].mac  bytesSent  ETV
vector 227  Homenet.office.eth[4].mac  framesReceivedOK  ETV
vector 229  Homenet.office.eth[4].mac  bytesReceivedOK  ETV
vector 233  Homenet.office.eth[4].mac  framesPassedToHL  ETV
vector 2  Homenet.room_A.eth[0].mac  framesSent  ETV
vector 4  Homenet.room_A.eth[0].mac  bytesSent  ETV
vector 269  Homenet.room_B.eth[2].mac  framesReceivedOK  ETV
vector 271  Homenet.room_B.eth[2].mac  bytesReceivedOK  ETV
vector 275  Homenet.room_B.eth[2].mac  framesPassedToHL  ETV
vector 170  Homenet.office.eth[0].mac  framesSent  ETV
vector 172  Homenet.office.eth[0].mac  bytesSent  ETV
vector 429  Homenet.Host2.eth[0].mac  framesReceivedOK  ETV
vector 431  Homenet.Host2.eth[0].mac  bytesReceivedOK  ETV
vector 435  Homenet.Host2.eth[0].mac  framesPassedToHL  ETV
vector 128  Homenet.kitchen.eth[0].mac  framesSent  ETV
vector 130  Homenet.kitchen.eth[0].mac  bytesSent  ETV
vector 506  Homenet.Receptor3.stats.mac[0]  framesReceivedOK  ETV
vector 508  Homenet.Receptor3.stats.mac[0]  bytesReceivedOK  ETV
vector 512  Homenet.Receptor3.stats.mac[0]  framesPassedToHL  ETV
vector 504  Homenet.Receptor3.stats.relayUnit  "buffer level"  ETV
vector 517  Homenet.Receptor3.stats.mac[1]  framesSent  ETV
vector 519  Homenet.Receptor3.stats.mac[1]  bytesSent  ETV
vector 445  Homenet.Host3.eth[0].mac  framesReceivedOK  ETV
vector 447  Homenet.Host3.eth[0].mac  bytesReceivedOK  ETV
vector 451  Homenet.Host3.eth[0].mac  framesPassedToHL  ETV
vector 324  Homenet.living_room.eth[1].mac  framesSent  ETV
vector 326  Homenet.living_room.eth[1].mac  bytesSent  ETV
vector 115  Homenet.garage.eth[2].mac  framesReceivedOK  ETV
vector 117  Homenet.garage.eth[2].mac  bytesReceivedOK  ETV
vector 121  Homenet.garage.eth[2].mac  framesPassedToHL  ETV
vector 58  Homenet.room_C.eth[1].mac  framesSent  ETV
vector 60  Homenet.room_C.eth[1].mac  bytesSent  ETV
vector 255  Homenet.room_B.eth[1].mac  framesReceivedOK  ETV
vector 257  Homenet.room_B.eth[1].mac  bytesReceivedOK  ETV
vector 261  Homenet.room_B.eth[1].mac  framesPassedToHL  ETV
vector 366  Homenet.living_room.eth[4].mac  framesSent  ETV
vector 368  Homenet.living_room.eth[4].mac  bytesSent  ETV
vector 199  Homenet.office.eth[2].mac  framesReceivedOK  ETV
vector 201  Homenet.office.eth[2].mac  bytesReceivedOK  ETV
vector 205  Homenet.office.eth[2].mac  framesPassedToHL  ETV
vector 114  Homenet.garage.eth[2].mac  framesSent  ETV
vector 116  Homenet.garage.eth[2].mac  bytesSent  ETV
vector 325  Homenet.living_room.eth[1].mac  framesReceivedOK  ETV
vector 327  Homenet.living_room.eth[1].mac  bytesReceivedOK  ETV
vector 331  Homenet.living_room.eth[1].mac  framesPassedToHL  ETV
vector 86  Homenet.garage.eth[0].mac  framesSent  ETV
vector 88  Homenet.garage.eth[0].mac  bytesSent  ETV
vector 477  Homenet.Host5.eth[0].mac  framesReceivedOK  ETV
vector 479  Homenet.Host5.eth[0].mac  bytesReceivedOK  ETV
vector 483  Homenet.Host5.eth[0].mac  framesPassedToHL  ETV
vector 212  Homenet.office.eth[3].mac  framesSent  ETV
vector 214  Homenet.office.eth[3].mac  bytesSent  ETV
vector 17  Homenet.room_A.eth[1].mac  framesReceivedOK  ETV
vector 19  Homenet.room_A.eth[1].mac  bytesReceivedOK  ETV
vector 23  Homenet.room_A.eth[1].mac  framesPassedToHL  ETV
vector 198  Homenet.office.eth[2].mac  framesSent  ETV
vector 200  Homenet.office.eth[2].mac  bytesSent  ETV
vector 367  Homenet.living_room.eth[4].mac  framesReceivedOK  ETV
vector 369  Homenet.living_room.eth[4].mac  bytesReceivedOK  ETV
vector 373  Homenet.living_room.eth[4].mac  framesPassedToHL  ETV
vector 226  Homenet.office.eth[4].mac  framesSent  ETV
vector 228  Homenet.office.eth[4].mac  bytesSent  ETV
vector 73  Homenet.room_C.eth[2].mac  framesReceivedOK  ETV
vector 75  Homenet.room_C.eth[2].mac  bytesReceivedOK  ETV
vector 79  Homenet.room_C.eth[2].mac  framesPassedToHL  ETV
vector 338  Homenet.living_room.eth[2].mac  framesSent  ETV
vector 340  Homenet.living_room.eth[2].mac  bytesSent  ETV
vector 283  Homenet.room_B.eth[3].mac  framesReceivedOK  ETV
vector 285  Homenet.room_B.eth[3].mac  bytesReceivedOK  ETV
vector 289  Homenet.room_B.eth[3].mac  framesPassedToHL  ETV
vector 380  Homenet.living_room.eth[5].mac  framesSent  ETV
vector 382  Homenet.living_room.eth[5].mac  bytesSent  ETV
vector 143  Homenet.kitchen.eth[1].mac  framesReceivedOK  ETV
vector 145  Homenet.kitchen.eth[1].mac  bytesReceivedOK  ETV
vector 149  Homenet.kitchen.eth[1].mac  framesPassedToHL  ETV
vector 296  Homenet.room_B.eth[4].mac  framesSent  ETV
vector 298  Homenet.room_B.eth[4].mac  bytesSent  ETV
vector 101  Homenet.garage.eth[1].mac  framesReceivedOK  ETV
vector 103  Homenet.garage.eth[1].mac  bytesReceivedOK  ETV
vector 107  Homenet.garage.eth[1].mac  framesPassedToHL  ETV
vector 142  Homenet.kitchen.eth[1].mac  framesSent  ETV
vector 144  Homenet.kitchen.eth[1].mac  bytesSent  ETV
vector 381  Homenet.living_room.eth[5].mac  framesReceivedOK  ETV
vector 383  Homenet.living_room.eth[5].mac  bytesReceivedOK  ETV
vector 387  Homenet.living_room.eth[5].mac  framesPassedToHL  ETV
vector 44  Homenet.room_C.eth[0].mac  framesSent  ETV
vector 46  Homenet.room_C.eth[0].mac  bytesSent  ETV
vector 413  Homenet.Host1.eth[0].mac  framesReceivedOK  ETV
vector 415  Homenet.Host1.eth[0].mac  bytesReceivedOK  ETV
vector 419  Homenet.Host1.eth[0].mac  framesPassedToHL  ETV
vector 30  Homenet.room_A.eth[2].mac  framesSent  ETV
vector 32  Homenet.room_A.eth[2].mac  bytesSent  ETV
vector 353  Homenet.living_room.eth[3].mac  framesReceivedOK  ETV
vector 355  Homenet.living_room.eth[3].mac  bytesReceivedOK  ETV
vector 359  Homenet.living_room.eth[3].mac  framesPassedToHL  ETV
vector 350  Homenet.living_room.eth[3].queue  "queue length"  ETV
vector 16  Homenet.room_A.eth[1].mac  framesSent  ETV
vector 18  Homenet.room_A.eth[1].mac  bytesSent  ETV
vector 213  Homenet.office.eth[3].mac  framesReceivedOK  ETV
vector 215  Homenet.office.eth[3].mac  bytesReceivedOK  ETV
vector 219  Homenet.office.eth[3].mac  framesPassedToHL  ETV
vector 254  Homenet.room_B.eth[1].mac  framesSent  ETV
vector 256  Homenet.room_B.eth[1].mac  bytesSent  ETV
vector 59  Homenet.room_C.eth[1].mac  framesReceivedOK  ETV
vector 61  Homenet.room_C.eth[1].mac  bytesReceivedOK  ETV
vector 65  Homenet.room_C.eth[1].mac  framesPassedToHL  ETV
vector 184  Homenet.office.eth[1].mac  framesSent  ETV
vector 186  Homenet.office.eth[1].mac  bytesSent  ETV
vector 157  Homenet.kitchen.eth[2].mac  framesReceivedOK  ETV
vector 159  Homenet.kitchen.eth[2].mac  bytesReceivedOK  ETV
vector 163  Homenet.kitchen.eth[2].mac  framesPassedToHL  ETV
vector 268  Homenet.room_B.eth[2].mac  framesSent  ETV
vector 270  Homenet.room_B.eth[2].mac  bytesSent  ETV
vector 3  Homenet.room_A.eth[0].mac  framesReceivedOK  ETV
vector 5  Homenet.room_A.eth[0].mac  bytesReceivedOK  ETV
vector 9  Homenet.room_A.eth[0].mac  framesPassedToHL  ETV
vector 240  Homenet.room_B.eth[0].mac  framesSent  ETV
vector 242  Homenet.room_B.eth[0].mac  bytesSent  ETV
vector 563  Homenet.Emitter0.stats.mac[1]  framesReceivedOK  ETV
vector 565  Homenet.Emitter0.stats.mac[1]  bytesReceivedOK  ETV
vector 569  Homenet.Emitter0.stats.mac[1]  framesPassedToHL  ETV
vector 549  Homenet.Emitter0.stats.relayUnit  "buffer level"  ETV
vector 550  Homenet.Emitter0.stats.mac[0]  framesSent  ETV
vector 552  Homenet.Emitter0.stats.mac[0]  bytesSent  ETV
vector 397  Homenet.Host0.eth[0].mac  framesReceivedOK  ETV
vector 399  Homenet.Host0.eth[0].mac  bytesReceivedOK  ETV
vector 403  Homenet.Host0.eth[0].mac  framesPassedToHL  ETV
vector 100  Homenet.garage.eth[1].mac  framesSent  ETV
vector 102  Homenet.garage.eth[1].mac  bytesSent  ETV
vector 297  Homenet.room_B.eth[4].mac  framesReceivedOK  ETV
vector 299  Homenet.room_B.eth[4].mac  bytesReceivedOK  ETV
vector 303  Homenet.room_B.eth[4].mac  framesPassedToHL  ETV
vector 322  Homenet.living_room.eth[1].queue  "queue length"  ETV
vector 112  Homenet.garage.eth[2].queue  "queue length"  ETV
vector 124  Homenet.garage.eth[2].mac  collisions  ETV
vector 334  Homenet.living_room.eth[1].mac  collisions  ETV
vector 125  Homenet.garage.eth[2].mac  backoffs  ETV
vector 335  Homenet.living_room.eth[1].mac  backoffs  ETV
vector 12  Homenet.room_A.eth[0].mac  collisions  ETV
vector 278  Homenet.room_B.eth[2].mac  collisions  ETV
vector 13  Homenet.room_A.eth[0].mac  backoffs  ETV
vector 279  Homenet.room_B.eth[2].mac  backoffs  ETV
vector 266  Homenet.room_B.eth[2].queue  "queue length"  ETV
vector 70  Homenet.room_C.eth[2].queue  "queue length"  ETV
vector 224  Homenet.office.eth[4].queue  "queue length"  ETV
vector 236  Homenet.office.eth[4].mac  collisions  ETV
vector 82  Homenet.room_C.eth[2].mac  collisions  ETV
vector 237  Homenet.office.eth[4].mac  backoffs  ETV
vector 83  Homenet.room_C.eth[2].mac  backoffs  ETV
vector 264  Homenet.room_B.eth[1].mac  collisions  ETV
vector 68  Homenet.room_C.eth[1].mac  collisions  ETV
vector 265  Homenet.room_B.eth[1].mac  backoffs  ETV
vector 69  Homenet.room_C.eth[1].mac  backoffs  ETV
vector 362  Homenet.living_room.eth[3].mac  collisions  ETV
vector 40  Homenet.room_A.eth[2].mac  collisions  ETV
vector 363  Homenet.living_room.eth[3].mac  backoffs  ETV
vector 41  Homenet.room_A.eth[2].mac  backoffs  ETV
vector 0  Homenet.room_A.eth[0].queue  "queue length"  ETV
vector 26  Homenet.room_A.eth[1].mac  collisions  ETV
vector 222  Homenet.office.eth[3].mac  collisions  ETV
vector 27  Homenet.room_A.eth[1].mac  backoffs  ETV
vector 223  Homenet.office.eth[3].mac  backoffs  ETV
vector 210  Homenet.office.eth[3].queue  "queue length"  ETV
vector 396  Homenet.Host0.eth[0].mac  framesSent  ETV
vector 398  Homenet.Host0.eth[0].mac  bytesSent  ETV
vector 551  Homenet.Emitter0.stats.mac[0]  framesReceivedOK  ETV
vector 553  Homenet.Emitter0.stats.mac[0]  bytesReceivedOK  ETV
vector 557  Homenet.Emitter0.stats.mac[0]  framesPassedToHL  ETV
vector 562  Homenet.Emitter0.stats.mac[1]  framesSent  ETV
vector 564  Homenet.Emitter0.stats.mac[1]  bytesSent  ETV
vector 241  Homenet.room_B.eth[0].mac  framesReceivedOK  ETV
vector 243  Homenet.room_B.eth[0].mac  bytesReceivedOK  ETV
vector 247  Homenet.room_B.eth[0].mac  framesPassedToHL  ETV
vector 444  Homenet.Host3.eth[0].mac  framesSent  ETV
vector 446  Homenet.Host3.eth[0].mac  bytesSent  ETV
vector 518  Homenet.Receptor3.stats.mac[1]  framesReceivedOK  ETV
vector 520  Homenet.Receptor3.stats.mac[1]  bytesReceivedOK  ETV
vector 524  Homenet.Receptor3.stats.mac[1]  framesPassedToHL  ETV
vector 505  Homenet.Receptor3.stats.mac[0]  framesSent  ETV
vector 507  Homenet.Receptor3.stats.mac[0]  bytesSent  ETV
vector 129  Homenet.kitchen.eth[0].mac  framesReceivedOK  ETV
vector 131  Homenet.kitchen.eth[0].mac  bytesReceivedOK  ETV
vector 135  Homenet.kitchen.eth[0].mac  framesPassedToHL  ETV
vector 529  Homenet.Receptor3.stats.thruputMeter  "thruput (bit/sec)"  ETV
vector 530  Homenet.Receptor3.stats.thruputMeter  packet/sec  ETV
vector 532  Homenet.Receptor3.stats.thruputMeter  jitterVector  ETV
vector 531  Homenet.Receptor3.stats.thruputMeter  pkDelayVector  ETV
vector 392  Homenet.Host0.pingApp  pingRTT  ETV
0	7037	10.096702000601	1
0	7256	10.096805640599	2
0	7537	10.096936520596	3
0	7944	10.097118420597	2
0	7961	10.097125140596	1
0	7983	10.097131860595	0
0	8055	10.097691720597	1
0	8108	10.097721720597	2
0	8132	10.097754360593	1
0	8140	10.097761080592	0
2	194	0.089486818281	1
2	2512	0.113879849434	2
2	2540	0.113933489432	3
2	2569	0.11398712943	4
2	2580	0.11399712943	5
2	2637	0.114050769428	6
2	2648	0.114060769428	7
2	3384	5.096705860599	8
2	3729	5.096793780598	9
2	3791	5.096813780598	10
2	4694	5.0970843806	11
2	4729	5.0970943806	12
2	5250	5.097325540599	13
2	6091	6.000016719999	14
2	6568	10.089486818281	15
2	7944	10.097118420597	16
2	7961	10.097125140596	17
2	7983	10.097131860595	18
2	7997	10.097138580594	19
2	8132	10.097754360593	20
2	8140	10.097761080592	21
2	8153	10.097767800591	22
2	8173	10.097788440596	23
2	8192	10.097802080594	24
2	9633	20.089486818281	25
3	2499	0.113853129435	1
3	2527	0.113906769433	2
3	2555	0.113960409431	3
3	2596	0.114014049429	4
3	2608	0.114024049429	5
3	2628	0.114044049429	6
3	3165	5.096645180602	7
3	3574	5.096757060599	8
3	3598	5.096763780598	9
3	3637	5.0967744806	10
3	3682	5.0967844806	11
3	4007	5.0968644806	12
3	4847	5.097131300599	13
3	6176	6.000026819999	14
3	8039	10.097681720597	15
3	8047	10.097688440596	16
3	8061	10.097695160595	17
3	8083	10.097703360593	18
3	8091	10.097710080592	19
3	8101	10.097716800591	20
3	8112	10.09772352059	21
3	8118	10.097730240589	22
3	8187	10.097795360595	23
3	8526	10.113853129435	24
4	194	0.089486818281	64
4	2512	0.113879849434	128
4	2540	0.113933489432	192
4	2569	0.11398712943	256
4	2580	0.11399712943	320
4	2637	0.114050769428	384
4	2648	0.114060769428	448
4	3384	5.096705860599	512
4	3729	5.096793780598	576
4	3791	5.096813780598	640
4	4694	5.0970843806	704
4	4729	5.0970943806	768
4	5250	5.097325540599	832
4	6091	6.000016719999	896
4	6568	10.089486818281	960
4	7944	10.097118420597	1024
4	7961	10.097125140596	1088
4	7983	10.097131860595	1152
4	7997	10.097138580594	1216
4	8132	10.097754360593	1280
4	8140	10.097761080592	1344
4	8153	10.097767800591	1408
4	8173	10.097788440596	1472
4	8192	10.097802080594	1536
4	9633	20.089486818281	1600
5	2499	0.113853129435	64
5	2527	0.113906769433	128
5	2555	0.113960409431	192
5	2596	0.114014049429	256
5	2608	0.114024049429	320
5	2628	0.114044049429	384
5	3165	5.096645180602	448
5	3574	5.096757060599	512
5	3598	5.096763780598	576
5	3637	5.0967744806	640
5	3682	5.0967844806	704
5	4007	5.0968644806	768
5	4847	5.097131300599	832
5	6176	6.000026819999	896
5	8039	10.097681720597	960
5	8047	10.097688440596	1024
5	8061	10.097695160595	1088
5	8083	10.097703360593	1152
5	8091	10.097710080592	1216
5	8101	10.097716800591	1280
5	8112	10.09772352059	1344
5	8118	10.097730240589	1408
5	8187	10.097795360595	1472
5	8526	10.113853129435	1536
9	2499	0.113853129435	1
9	2527	0.113906769433	2
9	2555	0.113960409431	3
9	2596	0.114014049429	4
9	2608	0.114024049429	5
9	2628	0.114044049429	6
9	3165	5.096645180602	7
9	3574	5.096757060599	8
9	3598	5.096763780598	9
9	3637	5.0967744806	10
9	3682	5.0967844806	11
9	4007	5.0968644806	12
9	4847	5.097131300599	13
9	6176	6.000026819999	14
9	8039	10.097681720597	15
9	8047	10.097688440596	16
9	8061	10.097695160595	17
9	8083	10.097703360593	18
9	8091	10.097710080592	19
9	8101	10.097716800591	20
9	8112	10.09772352059	21
9	8118	10.097730240589	22
9	8187	10.097795360595	23
9	8526	10.113853129435	24
12	3355	5.0966987206	1
12	6839	10.096646240601	2
12	6851	10.0966477206	3
12	6863	10.096649200599	4
12	7465	10.096906580598	5
12	8066	10.097696120594	6
13	3365	5.0966990406	1
13	6843	10.096646560601	2
13	6855	10.0966480406	3
13	6867	10.096649520599	4
13	7469	10.096906900598	5
13	8070	10.097696440594	6
16	1976	0.108864527823	1
16	2019	0.108920166742	2
16	2048	0.10897380674	3
16	2059	0.10898380674	4
16	2116	0.109037446738	5
16	2127	0.109047446738	6
16	3254	5.096671900601	7
16	3424	5.096715540599	8
16	3501	5.096735540599	9
16	3837	5.096825540599	10
16	3921	5.096843780598	11
16	4148	5.096903780598	12
16	4209	5.096923780598	13
16	4379	5.096973780598	14
16	4461	5.097003780598	15
16	4767	5.0971043806	16
16	6164	6.000026719999	17
16	6906	10.096661900601	18
16	7028	10.0966987206	19
16	7245	10.096802360598	20
16	7291	10.096822360598	21
16	7353	10.096842360598	22
16	7412	10.096855320596	23
16	8480	10.108864527823	24
16	8669	11.000016719999	25
17	484	0.097467512056	1
17	2006	0.108893446743	2
17	2034	0.108947086741	3
17	2075	0.109000726739	4
17	2087	0.109010726739	5
17	2107	0.109030726739	6
17	3402	5.0967088206	7
17	3528	5.096742460598	8
17	3662	5.0967788206	9
17	3814	5.0968188206	10
17	4170	5.096910700597	11
17	4337	5.0969588206	12
17	4585	5.0970488206	13
17	4790	5.097111300599	14
17	4966	5.0971788206	15
17	5149	5.0972688206	16
17	5202	5.0972988206	17
17	6235	6.000036819999	18
17	6937	10.096672000601	19
17	7063	10.096712000601	20
17	7262	10.096812000601	21
17	7319	10.096832000601	22
17	7461	10.096906520596	23
17	7481	10.096913240595	24
17	8028	10.097467512056	25
17	8756	11.000026819999	26
17	9769	20.097467512056	27
18	1976	0.108864527823	64
18	2019	0.108920166742	128
18	2048	0.10897380674	192
18	2059	0.10898380674	256
18	2116	0.109037446738	320
18	2127	0.109047446738	384
18	3254	5.096671900601	448
18	3424	5.096715540599	512
18	3501	5.096735540599	576
18	3837	5.096825540599	640
18	3921	5.096843780598	704
18	4148	5.096903780598	768
18	4209	5.096923780598	832
18	4379	5.096973780598	896
18	4461	5.097003780598	960
18	4767	5.0971043806	1024
18	6164	6.000026719999	1088
18	6906	10.096661900601	1152
18	7028	10.0966987206	1216
18	7245	10.096802360598	1280
18	7291	10.096822360598	1344
18	7353	10.096842360598	1408
18	7412	10.096855320596	1472
18	8480	10.108864527823	1536
18	8669	11.000016719999	1600
19	484	0.097467512056	64
19	2006	0.108893446743	128
19	2034	0.108947086741	192
19	2075	0.109000726739	256
19	2087	0.109010726739	320
19	2107	0.109030726739	384
19	3402	5.0967088206	448
19	3528	5.096742460598	512
19	3662	5.0967788206	576
19	3814	5.0968188206	640
19	4170	5.096910700597	704
19	4337	5.0969588206	768
19	4585	5.0970488206	832
19	4790	5.097111300599	896
19	4966	5.0971788206	960
19	5149	5.0972688206	1024
19	5202	5.0972988206	1088
19	6235	6.000036819999	1152
19	6937	10.096672000601	1216
19	7063	10.096712000601	1280
19	7262	10.096812000601	1344
19	7319	10.096832000601	1408
19	7461	10.096906520596	1472
19	7481	10.096913240595	1536
19	8028	10.097467512056	1600
19	8756	11.000026819999	1664
19	9769	20.097467512056	1728
23	484	0.097467512056	1
23	2006	0.108893446743	2
23	2034	0.108947086741	3
23	2075	0.109000726739	4
23	2087	0.109010726739	5
23	2107	0.109030726739	6
23	3402	5.0967088206	7
23	3528	5.096742460598	8
23	3662	5.0967788206	9
23	3814	5.0968188206	10
23	4170	5.096910700597	11
23	4337	5.0969588206	12
23	4585	5.0970488206	13
23	4790	5.097111300599	14
23	4966	5.0971788206	15
23	5149	5.0972688206	16
23	5202	5.0972988206	17
23	6235	6.000036819999	18
23	6937	10.096672000601	19
23	7063	10.096712000601	20
23	7262	10.096812000601	21
23	7319	10.096832000601	22
23	7461	10.096906520596	23
23	7481	10.096913240595	24
23	8028	10.097467512056	25
23	8756	11.000026819999	26
23	9769	20.097467512056	27
26	7371	10.096846600598	1
26	7383	10.096848080597	2
27	7375	10.096846920598	1
27	7387	10.096848400597	2
30	1626	0.108542426749	1
30	1654	0.108596066747	2
30	1683	0.108649706745	3
30	1694	0.108659706745	4
30	1760	0.108713346743	5
30	1869	0.108786986741	6
30	3297	5.0966843806	7
30	3880	5.0968343806	8
30	3970	5.096853780598	9
30	4243	5.096933780598	10
30	4286	5.096947420596	11
30	4409	5.096983780598	12
30	4795	5.0971143806	13
30	4826	5.0971243806	14
30	5275	5.097335540599	15
30	5414	5.0973843806	16
30	5588	5.0974843806	17
30	5948	5.108786986741	18
30	5970	5.108820626739	19
30	6241	6.000038199998	20
30	7588	10.096953240595	21
30	8428	10.108542426749	22
30	8443	10.108786986741	23
30	8465	10.108820626739	24
30	8821	11.000079299998	25
30	9904	20.108542426749	26
31	134	0.087580265193	1
31	1641	0.108569346748	2
31	1669	0.108622986746	3
31	1710	0.108676626744	4
31	1722	0.108686626744	5
31	1746	0.108706626744	6
31	1774	0.108720266742	7
31	1780	0.108726986741	8
31	1793	0.108736626744	9
31	1806	0.108746626744	10
31	1819	0.108756626744	11
31	1908	0.108816626744	12
31	3271	5.096677660601	13
31	3849	5.096827660601	14
31	4266	5.096940700597	15
31	4580	5.097047660601	16
31	5082	5.097227660601	17
31	5333	5.097357660601	18
31	5530	5.097457660601	19
31	5607	5.097491300599	20
31	5683	5.097637660601	21
31	5960	5.10880390674	22
31	6334	6.000089399998	23
31	6508	10.087580265193	24
31	6768	10.096625180602	25
31	7179	10.096775640599	26
31	7618	10.0969688206	27
31	8455	10.10880390674	28
31	8767	11.000028299998	29
31	9573	20.087580265193	30
32	1626	0.108542426749	64
32	1654	0.108596066747	128
32	1683	0.108649706745	192
32	1694	0.108659706745	256
32	1760	0.108713346743	320
32	1869	0.108786986741	384
32	3297	5.0966843806	448
32	3880	5.0968343806	512
32	3970	5.096853780598	576
32	4243	5.096933780598	640
32	4286	5.096947420596	704
32	4409	5.096983780598	768
32	4795	5.0971143806	832
32	4826	5.0971243806	896
32	5275	5.097335540599	960
32	5414	5.0973843806	1024
32	5588	5.0974843806	1088
32	5948	5.108786986741	1152
32	5970	5.108820626739	1216
32	6241	6.000038199998	1280
32	7588	10.096953240595	1344
32	8428	10.108542426749	1408
32	8443	10.108786986741	1472
32	8465	10.108820626739	1536
32	8821	11.000079299998	1600
32	9904	20.108542426749	1664
33	134	0.087580265193	64
33	1641	0.108569346748	128
33	1669	0.108622986746	192
33	1710	0.108676626744	256
33	1722	0.108686626744	320
33	1746	0.108706626744	384
33	1774	0.108720266742	448
33	1780	0.108726986741	512
33	1793	0.108736626744	576
33	1806	0.108746626744	640
33	1819	0.108756626744	704
33	1908	0.108816626744	768
33	3271	5.096677660601	832
33	3849	5.096827660601	896
33	4266	5.096940700597	960
33	4580	5.097047660601	1024
33	5082	5.097227660601	1088
33	5333	5.097357660601	1152
33	5530	5.097457660601	1216
33	5607	5.097491300599	1280
33	5683	5.097637660601	1344
33	5960	5.10880390674	1408
33	6334	6.000089399998	1472
33	6508	10.087580265193	1536
33	6768	10.096625180602	1600
33	7179	10.096775640599	1664
33	7618	10.0969688206	1728
33	8455	10.10880390674	1792
33	8767	11.000028299998	1856
33	9573	20.087580265193	1920
37	134	0.087580265193	1
37	1641	0.108569346748	2
37	1669	0.108622986746	3
37	1710	0.108676626744	4
37	1722	0.108686626744	5
37	1746	0.108706626744	6
37	1774	0.108720266742	7
37	1780	0.108726986741	8
37	1793	0.108736626744	9
37	1806	0.108746626744	10
37	1819	0.108756626744	11
37	1908	0.108816626744	12
37	3271	5.096677660601	13
37	3849	5.096827660601	14
37	4266	5.096940700597	15
37	4580	5.097047660601	16
37	5082	5.097227660601	17
37	5333	5.097357660601	18
37	5530	5.097457660601	19
37	5607	5.097491300599	20
37	5683	5.097637660601	21
37	5960	5.10880390674	22
37	6334	6.000089399998	23
37	6508	10.087580265193	24
37	6768	10.096625180602	25
37	7179	10.096775640599	26
37	7618	10.0969688206	27
37	8455	10.10880390674	28
37	8767	11.000028299998	29
37	9573	20.087580265193	30
40	6223	6.000031059999	1
40	8738	11.000021059999	2
41	6227	6.000031379999	1
41	8742	11.000021379999	2
44	1611	0.107215587092	1
44	8413	10.107215587092	2
44	9889	20.107215587092	3
46	1611	0.107215587092	64
46	8413	10.107215587092	128
46	9889	20.107215587092	192
58	268	0.09252676747	1
58	2160	0.111075816552	2
58	2188	0.11112945655	3
58	2217	0.111183096548	4
58	2228	0.111193096548	5
58	2291	0.111246736546	6
58	2312	0.111260376544	7
58	3520	5.096741200599	8
58	4699	5.097085540599	9
58	4995	5.097188020598	10
58	5276	5.097335540599	11
58	5400	5.097379180597	12
58	6111	6.000018199998	13
58	6642	10.09252676747	14
58	6900	10.0966587206	15
58	7593	10.0969587206	16
58	7760	10.097022360598	17
58	8670	11.000016719999	18
58	9707	20.09252676747	19
59	2147	0.111049096553	1
59	2175	0.111102736551	2
59	2203	0.111156376549	3
59	2244	0.111210016547	4
59	2256	0.111220016547	5
59	2277	0.111240016547	6
59	2303	0.111253656545	7
59	3129	5.096635180602	8
59	3335	5.0966944806	9
59	3416	5.0967144806	10
59	3927	5.0968444806	11
59	3975	5.0968544806	12
59	4816	5.097121300599	13
59	4919	5.097161300599	14
59	5034	5.097201300599	15
59	5321	5.097352460598	16
59	5462	5.097402460598	17
59	6313	6.000069399998	18
59	6815	10.096642000601	19
59	6928	10.096665640599	20
59	7034	10.096702000601	21
59	7682	10.096995640599	22
59	7794	10.097035640599	23
59	7901	10.097085640599	24
59	8496	10.111049096553	25
60	268	0.09252676747	64
60	2160	0.111075816552	128
60	2188	0.11112945655	192
60	2217	0.111183096548	256
60	2228	0.111193096548	320
60	2291	0.111246736546	384
60	2312	0.111260376544	448
60	3520	5.096741200599	512
60	4699	5.097085540599	576
60	4995	5.097188020598	640
60	5276	5.097335540599	704
60	5400	5.097379180597	768
60	6111	6.000018199998	832
60	6642	10.09252676747	896
60	6900	10.0966587206	960
60	7593	10.0969587206	1024
60	7760	10.097022360598	1088
60	8670	11.000016719999	1152
60	9707	20.09252676747	1216
61	2147	0.111049096553	64
61	2175	0.111102736551	128
61	2203	0.111156376549	192
61	2244	0.111210016547	256
61	2256	0.111220016547	320
61	2277	0.111240016547	384
61	2303	0.111253656545	448
61	3129	5.096635180602	512
61	3335	5.0966944806	576
61	3416	5.0967144806	640
61	3927	5.0968444806	704
61	3975	5.0968544806	768
61	4816	5.097121300599	832
61	4919	5.097161300599	896
61	5034	5.097201300599	960
61	5321	5.097352460598	1024
61	5462	5.097402460598	1088
61	6313	6.000069399998	1152
61	6815	10.096642000601	1216
61	6928	10.096665640599	1280
61	7034	10.096702000601	1344
61	7682	10.096995640599	1408
61	7794	10.097035640599	1472
61	7901	10.097085640599	1536
61	8496	10.111049096553	1600
65	2147	0.111049096553	1
65	2175	0.111102736551	2
65	2203	0.111156376549	3
65	2244	0.111210016547	4
65	2256	0.111220016547	5
65	2277	0.111240016547	6
65	2303	0.111253656545	7
65	3129	5.096635180602	8
65	3335	5.0966944806	9
65	3416	5.0967144806	10
65	3927	5.0968444806	11
65	3975	5.0968544806	12
65	4816	5.097121300599	13
65	4919	5.097161300599	14
65	5034	5.097201300599	15
65	5321	5.097352460598	16
65	5462	5.097402460598	17
65	6313	6.000069399998	18
65	6815	10.096642000601	19
65	6928	10.096665640599	20
65	7034	10.096702000601	21
65	7682	10.096995640599	22
65	7794	10.097035640599	23
65	7901	10.097085640599	24
65	8496	10.111049096553	25
68	6080	6.000011059999	1
69	6085	6.000011379999	1
70	5780	5.098870518679	1
70	5785	5.098877238678	0
72	179	0.089245142813	1
72	737	0.098676318684	2
72	765	0.098729958682	3
72	806	0.09878359868	4
72	817	0.09879359868	5
72	838	0.09881359868	6
72	912	0.098867238678	7
72	3220	5.096661900601	8
72	3444	5.096721200599	9
72	3548	5.096751200599	10
72	3586	5.096761200599	11
72	3798	5.096815540599	12
72	4078	5.096885540599	13
72	4775	5.097105540599	14
72	5773	5.098867238678	15
72	5785	5.098877238678	16
72	5810	5.098885438676	17
72	6165	6.000026719999	18
72	6553	10.089245142813	19
72	7009	10.096692360598	20
72	7068	10.096712360598	21
72	7108	10.096732360598	22
72	7935	10.097112360598	23
72	8289	10.098877238678	24
72	8748	11.000026719999	25
72	9618	20.089245142813	26
73	724	0.098649598685	1
73	752	0.098703238683	2
73	781	0.098756878681	3
73	793	0.098766878681	4
73	850	0.098820518679	5
73	862	0.098830518679	6
73	875	0.098840518679	7
73	932	0.098880518679	8
73	1229	0.099383981001	9
73	1573	0.107066084782	10
73	1990	0.108873446743	11
73	3707	5.0967888206	12
73	3906	5.0968388206	13
73	4612	5.0970588206	14
73	4639	5.0970688206	15
73	4886	5.0971488206	16
73	5172	5.0972788206	17
73	5225	5.0973088206	18
73	5764	5.098860518679	19
73	5828	5.098936638676	20
73	5836	5.098943358675	21
73	5844	5.098950078674	22
73	6271	6.000046819999	23
73	6969	10.096682000601	24
73	7169	10.096772000601	25
73	7514	10.096932000601	26
73	8264	10.098649598685	27
73	8279	10.098860518679	28
73	8301	10.098894158677	29
73	8790	11.000036819999	30
73	9799	20.098649598685	31
74	179	0.089245142813	64
74	737	0.098676318684	128
74	765	0.098729958682	192
74	806	0.09878359868	256
74	817	0.09879359868	320
74	838	0.09881359868	384
74	912	0.098867238678	448
74	3220	5.096661900601	512
74	3444	5.096721200599	576
74	3548	5.096751200599	640
74	3586	5.096761200599	704
74	3798	5.096815540599	768
74	4078	5.096885540599	832
74	4775	5.097105540599	896
74	5773	5.098867238678	960
74	5785	5.098877238678	1024
74	5810	5.098885438676	1088
74	6165	6.000026719999	1152
74	6553	10.089245142813	1216
74	7009	10.096692360598	1280
74	7068	10.096712360598	1344
74	7108	10.096732360598	1408
74	7935	10.097112360598	1472
74	8289	10.098877238678	1536
74	8748	11.000026719999	1600
74	9618	20.089245142813	1664
75	724	0.098649598685	64
75	752	0.098703238683	128
75	781	0.098756878681	192
75	793	0.098766878681	256
75	850	0.098820518679	320
75	862	0.098830518679	384
75	875	0.098840518679	448
75	932	0.098880518679	512
75	1229	0.099383981001	576
75	1573	0.107066084782	640
75	1990	0.108873446743	704
75	3707	5.0967888206	768
75	3906	5.0968388206	832
75	4612	5.0970588206	896
75	4639	5.0970688206	960
75	4886	5.0971488206	1024
75	5172	5.0972788206	1088
75	5225	5.0973088206	1152
75	5764	5.098860518679	1216
75	5828	5.098936638676	1280
75	5836	5.098943358675	1344
75	5844	5.098950078674	1408
75	6271	6.000046819999	1472
75	6969	10.096682000601	1536
75	7169	10.096772000601	1600
75	7514	10.096932000601	1664
75	8264	10.098649598685	1728
75	8279	10.098860518679	1792
75	8301	10.098894158677	1856
75	8790	11.000036819999	1920
75	9799	20.098649598685	1984
79	724	0.098649598685	1