version 2
run ping_H0-H3-0-20120515-11:23:15-4355
attr configname ping_H0-H3
attr datetime 20120515-11:23:15
attr experiment ping_H0-H3
attr inifile omnetpp.ini
attr iterationvars ""
attr iterationvars2 $repetition=0
attr measurement ""
attr network Homenet
attr processid 4355
attr repetition 0
attr replication #0
attr resultdir results
attr runnumber 0
attr seedset 0

vector 282  Homenet.room_B.eth[3].mac  framesSent  ETV
vector 284  Homenet.room_B.eth[3].mac  bytesSent  ETV
vector 339  Homenet.living_room.eth[2].mac  framesReceivedOK  ETV
vector 341  Homenet.living_room.eth[2].mac  bytesReceivedOK  ETV
vector 345  Homenet.living_room.eth[2].mac  framesPassedToHL  ETV
vector 352  Homenet.living_room.eth[3].mac  framesSent  ETV
vector 354  Homenet.living_room.eth[3].mac  bytesSent  ETV
vector 31  Homenet.room_A.eth[2].mac  framesReceivedOK  ETV
vector 33  Homenet.room_A.eth[2].mac  bytesReceivedOK  ETV
vector 37  Homenet.room_A.eth[2].mac  framesPassedToHL  ETV
vector 156  Homenet.kitchen.eth[2].mac  framesSent  ETV
vector 158  Homenet.kitchen.eth[2].mac  bytesSent  ETV
vector 185  Homenet.office.eth[1].mac  framesReceivedOK  ETV
vector 187  Homenet.office.eth[1].mac  bytesReceivedOK  ETV
vector 191  Homenet.office.eth[1].mac  framesPassedToHL  ETV
vector 310  Homenet.living_room.eth[0].mac  framesSent  ETV
vector 312  Homenet.living_room.eth[0].mac  bytesSent  ETV
vector 461  Homenet.Host4.eth[0].mac  framesReceivedOK  ETV
vector 463  Homenet.Host4.eth[0].mac  bytesReceivedOK  ETV
vector 467  Homenet.Host4.eth[0].mac  framesPassedToHL  ETV
vector 72  Homenet.room_C.eth[2].mac  framesSent  ETV
vector 74  Homenet.room_C.eth[2].mac  bytesSent  ETV
vector 227  Homenet.office.eth[4].mac  framesReceivedOK  ETV
vector 229  Homenet.office.eth[4].mac  bytesReceivedOK  ETV
vector 233  Homenet.office.eth[4].mac  framesPassedToHL  ETV
vector 2  Homenet.room_A.eth[0].mac  framesSent  ETV
vector 4  Homenet.room_A.eth[0].mac  bytesSent  ETV
vector 269  Homenet.room_B.eth[2].mac  framesReceivedOK  ETV
vector 271  Homenet.room_B.eth[2].mac  bytesReceivedOK  ETV
vector 275  Homenet.room_B.eth[2].mac  framesPassedToHL  ETV
vector 170  Homenet.office.eth[0].mac  framesSent  ETV
vector 172  Homenet.office.eth[0].mac  bytesSent  ETV
vector 429  Homenet.Host2.eth[0].mac  framesReceivedOK  ETV
vector 431  Homenet.Host2.eth[0].mac  bytesReceivedOK  ETV
vector 435  Homenet.Host2.eth[0].mac  framesPassedToHL  ETV
vector 128  Homenet.kitchen.eth[0].mac  framesSent  ETV
vector 130  Homenet.kitchen.eth[0].mac  bytesSent  ETV
vector 506  Homenet.Receptor3.stats.mac[0]  framesReceivedOK  ETV
vector 508  Homenet.Receptor3.stats.mac[0]  bytesReceivedOK  ETV
vector 512  Homenet.Receptor3.stats.mac[0]  framesPassedToHL  ETV
vector 504  Homenet.Receptor3.stats.relayUnit  "buffer level"  ETV
vector 517  Homenet.Receptor3.stats.mac[1]  framesSent  ETV
vector 519  Homenet.Receptor3.stats.mac[1]  bytesSent  ETV
vector 445  Homenet.Host3.eth[0].mac  framesReceivedOK  ETV
vector 447  Homenet.Host3.eth[0].mac  bytesReceivedOK  ETV
vector 451  Homenet.Host3.eth[0].mac  framesPassedToHL  ETV
vector 324  Homenet.living_room.eth[1].mac  framesSent  ETV
vector 326  Homenet.living_room.eth[1].mac  bytesSent  ETV
vector 115  Homenet.garage.eth[2].mac  framesReceivedOK  ETV
vector 117  Homenet.garage.eth[2].mac  bytesReceivedOK  ETV
vector 121  Homenet.garage.eth[2].mac  framesPassedToHL  ETV
vector 58  Homenet.room_C.eth[1].mac  framesSent  ETV
vector 60  Homenet.room_C.eth[1].mac  bytesSent  ETV
vector 255  Homenet.room_B.eth[1].mac  framesReceivedOK  ETV
vector 257  Homenet.room_B.eth[1].mac  bytesReceivedOK  ETV
vector 261  Homenet.room_B.eth[1].mac  framesPassedToHL  ETV
vector 366  Homenet.living_room.eth[4].mac  framesSent  ETV
vector 368  Homenet.living_room.eth[4].mac  bytesSent  ETV
vector 199  Homenet.office.eth[2].mac  framesReceivedOK  ETV
vector 201  Homenet.office.eth[2].mac  bytesReceivedOK  ETV
vector 205  Homenet.office.eth[2].mac  framesPassedToHL  ETV
vector 114  Homenet.garage.eth[2].mac  framesSent  ETV
vector 116  Homenet.garage.eth[2].mac  bytesSent  ETV
vector 325  Homenet.living_room.eth[1].mac  framesReceivedOK  ETV
vector 327  Homenet.living_room.eth[1].mac  bytesReceivedOK  ETV
vector 331  Homenet.living_room.eth[1].mac  framesPassedToHL  ETV
vector 86  Homenet.garage.eth[0].mac  framesSent  ETV
vector 88  Homenet.garage.eth[0].mac  bytesSent  ETV
vector 477  Homenet.Host5.eth[0].mac  framesReceivedOK  ETV
vector 479  Homenet.Host5.eth[0].mac  bytesReceivedOK  ETV
vector 483  Homenet.Host5.eth[0].mac  framesPassedToHL  ETV
vector 212  Homenet.office.eth[3].mac  framesSent  ETV
vector 214  Homenet.office.eth[3].mac  bytesSent  ETV
vector 17  Homenet.room_A.eth[1].mac  framesReceivedOK  ETV
vector 19  Homenet.room_A.eth[1].mac  bytesReceivedOK  ETV
vector 23  Homenet.room_A.eth[1].mac  framesPassedToHL  ETV
vector 198  Homenet.office.eth[2].mac  framesSent  ETV
vector 200  Homenet.office.eth[2].mac  bytesSent  ETV
vector 367  Homenet.living_room.eth[4].mac  framesReceivedOK  ETV
vector 369  Homenet.living_room.eth[4].mac  bytesReceivedOK  ETV
vector 373  Homenet.living_room.eth[4].mac  framesPassedToHL  ETV
vector 226  Homenet.office.eth[4].mac  framesSent  ETV
vector 228  Homenet.office.eth[4].mac  bytesSent  ETV
vector 73  Homenet.room_C.eth[2].mac  framesReceivedOK  ETV
vector 75  Homenet.room_C.eth[2].mac  bytesReceivedOK  ETV
vector 79  Homenet.room_C.eth[2].mac  framesPassedToHL  ETV
vector 338  Homenet.living_room.eth[2].mac  framesSent  ETV
vector 340  Homenet.living_room.eth[2].mac  bytesSent  ETV
vector 283  Homenet.room_B.eth[3].mac  framesReceivedOK  ETV
vector 285  Homenet.room_B.eth[3].mac  bytesReceivedOK  ETV
vector 289  Homenet.room_B.eth[3].mac  framesPassedToHL  ETV
vector 380  Homenet.living_room.eth[5].mac  framesSent  ETV
vector 382  Homenet.living_room.eth[5].mac  bytesSent  ETV
vector 143  Homenet.kitchen.eth[1].mac  framesReceivedOK  ETV
vector 145  Homenet.kitchen.eth[1].mac  bytesReceivedOK  ETV
vector 149  Homenet.kitchen.eth[1].mac  framesPassedToHL  ETV
vector 296  Homenet.room_B.eth[4].mac  framesSent  ETV
vector 298  Homenet.room_B.eth[4].mac  bytesSent  ETV
vector 101  Homenet.garage.eth[1].mac  framesReceivedOK  ETV
vector 103  Homenet.garage.eth[1].mac  bytesReceivedOK  ETV
vector 107  Homenet.garage.eth[1].mac  framesPassedToHL  ETV
vector 142  Homenet.kitchen.eth[1].mac  framesSent  ETV
vector 144  Homenet.kitchen.eth[1].mac  bytesSent  ETV
vector 381  Homenet.living_room.eth[5].mac  framesReceivedOK  ETV
vector 383  Homenet.living_room.eth[5].mac  bytesReceivedOK  ETV
vector 387  Homenet.living_room.eth[5].mac  framesPassedToHL  ETV
vector 44  Homenet.room_C.eth[0].mac  framesSent  ETV
vector 46  Homenet.room_C.eth[0].mac  bytesSent  ETV
vector 413  Homenet.Host1.eth[0].mac  framesReceivedOK  ETV
vector 415  Homenet.Host1.eth[0].mac  bytesReceivedOK  ETV
vector 419  Homenet.Host1.eth[0].mac  framesPassedToHL  ETV
vector 30  Homenet.room_A.eth[2].mac  framesSent  ETV
vector 32  Homenet.room_A.eth[2].mac  bytesSent  ETV
vector 353  Homenet.living_room.eth[3].mac  framesReceivedOK  ETV
vector 355  Homenet.living_room.eth[3].mac  bytesReceivedOK  ETV
vector 359  Homenet.living_room.eth[3].mac  framesPassedToHL  ETV
vector 350  Homenet.living_room.eth[3].queue  "queue length"  ETV
vector 16  Homenet.room_A.eth[1].mac  framesSent  ETV
vector 18  Homenet.room_A.eth[1].mac  bytesSent  ETV
vector 213  Homenet.office.eth[3].mac  framesReceivedOK  ETV
vector 215  Homenet.office.eth[3].mac  bytesReceivedOK  ETV
vector 219  Homenet.office.eth[3].mac  framesPassedToHL  ETV
vector 254  Homenet.room_B.eth[1].mac  framesSent  ETV
vector 256  Homenet.room_B.eth[1].mac  bytesSent  ETV
vector 59  Homenet.room_C.eth[1].mac  framesReceivedOK  ETV
vector 61  Homenet.room_C.eth[1].mac  bytesReceivedOK  ETV
vector 65  Homenet.room_C.eth[1].mac  framesPassedToHL  ETV
vector 184  Homenet.office.eth[1].mac  framesSent  ETV
vector 186  Homenet.office.eth[1].mac  bytesSent  ETV
vector 157  Homenet.kitchen.eth[2].mac  framesReceivedOK  ETV
vector 159  Homenet.kitchen.eth[2].mac  bytesReceivedOK  ETV
vector 163  Homenet.kitchen.eth[2].mac  framesPassedToHL  ETV
vector 268  Homenet.room_B.eth[2].mac  framesSent  ETV
vector 270  Homenet.room_B.eth[2].mac  bytesSent  ETV
vector 3  Homenet.room_A.eth[0].mac  framesReceivedOK  ETV
vector 5  Homenet.room_A.eth[0].mac  bytesReceivedOK  ETV
vector 9  Homenet.room_A.eth[0].mac  framesPassedToHL  ETV
vector 240  Homenet.room_B.eth[0].mac  framesSent  ETV
vector 242  Homenet.room_B.eth[0].mac  bytesSent  ETV
vector 563  Homenet.Emitter0.stats.mac[1]  framesReceivedOK  ETV
vector 565  Homenet.Emitter0.stats.mac[1]  bytesReceivedOK  ETV
vector 569  Homenet.Emitter0.stats.mac[1]  framesPassedToHL  ETV
vector 549  Homenet.Emitter0.stats.relayUnit  "buffer level"  ETV
vector 550  Homenet.Emitter0.stats.mac[0]  framesSent  ETV
vector 552  Homenet.Emitter0.stats.mac[0]  bytesSent  ETV
vector 397  Homenet.Host0.eth[0].mac  framesReceivedOK  ETV
vector 399  Homenet.Host0.eth[0].mac  bytesReceivedOK  ETV
vector 403  Homenet.Host0.eth[0].mac  framesPassedToHL  ETV
vector 100  Homenet.garage.eth[1].mac  framesSent  ETV
vector 102  Homenet.garage.eth[1].mac  bytesSent  ETV
vector 297  Homenet.room_B.eth[4].mac  framesReceivedOK  ETV
vector 299  Homenet.room_B.eth[4].mac  bytesReceivedOK  ETV
vector 303  Homenet.room_B.eth[4].mac  framesPassedToHL  ETV
vector 322  Homenet.living_room.eth[1].queue  "queue length"  ETV
vector 112  Homenet.garage.eth[2].queue  "queue length"  ETV
vector 124  Homenet.garage.eth[2].mac  collisions  ETV
vector 334  Homenet.living_room.eth[1].mac  collisions  ETV
vector 125  Homenet.garage.eth[2].mac  backoffs  ETV
vector 335  Homenet.living_room.eth[1].mac  backoffs  ETV
vector 12  Homenet.room_A.eth[0].mac  collisions  ETV
vector 278  Homenet.room_B.eth[2].mac  collisions  ETV
vector 13  Homenet.room_A.eth[0].mac  backoffs  ETV
vector 279  Homenet.room_B.eth[2].mac  backoffs  ETV
vector 266  Homenet.room_B.eth[2].queue  "queue length"  ETV
vector 166  Homenet.kitchen.eth[2].mac  collisions  ETV
vector 194  Homenet.office.eth[1].mac  collisions  ETV
vector 167  Homenet.kitchen.eth[2].mac  backoffs  ETV
vector 195  Homenet.office.eth[1].mac  backoffs  ETV
vector 154  Homenet.kitchen.eth[2].queue  "queue length"  ETV
vector 182  Homenet.office.eth[1].queue  "queue length"  ETV
vector 70  Homenet.room_C.eth[2].queue  "queue length"  ETV
vector 224  Homenet.office.eth[4].queue  "queue length"  ETV
vector 236  Homenet.office.eth[4].mac  collisions  ETV
vector 82  Homenet.room_C.eth[2].mac  collisions  ETV
vector 237  Homenet.office.eth[4].mac  backoffs  ETV
vector 83  Homenet.room_C.eth[2].mac  backoffs  ETV
vector 264  Homenet.room_B.eth[1].mac  collisions  ETV
vector 68  Homenet.room_C.eth[1].mac  collisions  ETV
vector 265  Homenet.room_B.eth[1].mac  backoffs  ETV
vector 69  Homenet.room_C.eth[1].mac  backoffs  ETV
vector 362  Homenet.living_room.eth[3].mac  collisions  ETV
vector 40  Homenet.room_A.eth[2].mac  collisions  ETV
vector 363  Homenet.living_room.eth[3].mac  backoffs  ETV
vector 41  Homenet.room_A.eth[2].mac  backoffs  ETV
vector 390  Homenet.living_room.eth[5].mac  collisions  ETV
vector 152  Homenet.kitchen.eth[1].mac  collisions  ETV
vector 391  Homenet.living_room.eth[5].mac  backoffs  ETV
vector 153  Homenet.kitchen.eth[1].mac  backoffs  ETV
vector 378  Homenet.living_room.eth[5].queue  "queue length"  ETV
vector 222  Homenet.office.eth[3].mac  collisions  ETV
vector 26  Homenet.room_A.eth[1].mac  collisions  ETV
vector 348  Homenet.living_room.eth[2].mac  collisions  ETV
vector 292  Homenet.room_B.eth[3].mac  collisions  ETV
vector 223  Homenet.office.eth[3].mac  backoffs  ETV
vector 27  Homenet.room_A.eth[1].mac  backoffs  ETV
vector 349  Homenet.living_room.eth[2].mac  backoffs  ETV
vector 293  Homenet.room_B.eth[3].mac  backoffs  ETV
vector 396  Homenet.Host0.eth[0].mac  framesSent  ETV
vector 398  Homenet.Host0.eth[0].mac  bytesSent  ETV
vector 551  Homenet.Emitter0.stats.mac[0]  framesReceivedOK  ETV
vector 553  Homenet.Emitter0.stats.mac[0]  bytesReceivedOK  ETV
vector 557  Homenet.Emitter0.stats.mac[0]  framesPassedToHL  ETV
vector 562  Homenet.Emitter0.stats.mac[1]  framesSent  ETV
vector 564  Homenet.Emitter0.stats.mac[1]  bytesSent  ETV
vector 241  Homenet.room_B.eth[0].mac  framesReceivedOK  ETV
vector 243  Homenet.room_B.eth[0].mac  bytesReceivedOK  ETV
vector 247  Homenet.room_B.eth[0].mac  framesPassedToHL  ETV
vector 444  Homenet.Host3.eth[0].mac  framesSent  ETV
vector 446  Homenet.Host3.eth[0].mac  bytesSent  ETV
vector 518  Homenet.Receptor3.stats.mac[1]  framesReceivedOK  ETV
vector 520  Homenet.Receptor3.stats.mac[1]  bytesReceivedOK  ETV
vector 524  Homenet.Receptor3.stats.mac[1]  framesPassedToHL  ETV
vector 505  Homenet.Receptor3.stats.mac[0]  framesSent  ETV
vector 507  Homenet.Receptor3.stats.mac[0]  bytesSent  ETV
vector 129  Homenet.kitchen.eth[0].mac  framesReceivedOK  ETV
vector 131  Homenet.kitchen.eth[0].mac  bytesReceivedOK  ETV
vector 135  Homenet.kitchen.eth[0].mac  framesPassedToHL  ETV
vector 529  Homenet.Receptor3.stats.thruputMeter  "thruput (bit/sec)"  ETV
vector 530  Homenet.Receptor3.stats.thruputMeter  packet/sec  ETV
vector 532  Homenet.Receptor3.stats.thruputMeter  jitterVector  ETV
vector 531  Homenet.Receptor3.stats.thruputMeter  pkDelayVector  ETV
vector 392  Homenet.Host0.pingApp  pingRTT  ETV
2	194	0.089486818281	1
2	2512	0.113879849434	2
2	2540	0.113933489432	3
2	2569	0.11398712943	4
2	2580	0.11399712943	5
2	2637	0.114050769428	6
2	2648	0.114060769428	7
2	3459	5.096964820597	8
2	3867	5.097052740596	9
2	3960	5.097082740596	10
2	4701	5.097320160597	11
2	4751	5.097330160597	12
2	5498	5.097623340598	13
2	6199	6.000016719999	14
2	6688	10.089486818281	15
2	6979	10.096651900601	16
2	7045	10.096671900601	17
2	7207	10.0967187206	18
2	7572	10.096963340598	19
2	7969	10.097150620594	20
2	8857	11.000121879997	21
2	9733	20.089486818281	22
2	13477	30.089486818281	23
3	2499	0.113853129435	1
3	2527	0.113906769433	2
3	2555	0.113960409431	3
3	2596	0.114014049429	4
3	2608	0.114024049429	5
3	2628	0.114044049429	6
3	3136	5.096635180602	7
3	3664	5.097016020597	8
3	3685	5.097022740596	9
3	3730	5.097033440598	10
3	3788	5.097043440598	11
3	4134	5.097129660595	12
3	4890	5.097357080596	13
3	6284	6.000026819999	14
3	6930	10.096635180602	15
3	7078	10.0966788206	16
3	7223	10.096725640599	17
3	7242	10.096735180602	18
3	8515	10.113853129435	19
3	8876	11.000173179997	20
3	10124	20.113853129435	21
3	13868	30.113853129435	22
4	194	0.089486818281	64
4	2512	0.113879849434	128
4	2540	0.113933489432	192
4	2569	0.11398712943	256
4	2580	0.11399712943	320
4	2637	0.114050769428	384
4	2648	0.114060769428	448
4	3459	5.096964820597	512
4	3867	5.097052740596	576
4	3960	5.097082740596	640
4	4701	5.097320160597	704
4	4751	5.097330160597	768
4	5498	5.097623340598	832
4	6199	6.000016719999	896
4	6688	10.089486818281	960
4	6979	10.096651900601	1024
4	7045	10.096671900601	1088
4	7207	10.0967187206	1152
4	7572	10.096963340598	1216
4	7969	10.097150620594	1280
4	8857	11.000121879997	1344
4	9733	20.089486818281	1408
4	13477	30.089486818281	1472
5	2499	0.113853129435	64
5	2527	0.113906769433	128
5	2555	0.113960409431	192
5	2596	0.114014049429	256
5	2608	0.114024049429	320
5	2628	0.114044049429	384
5	3136	5.096635180602	448
5	3664	5.097016020597	512
5	3685	5.097022740596	576
5	3730	5.097033440598	640
5	3788	5.097043440598	704
5	4134	5.097129660595	768
5	4890	5.097357080596	832
5	6284	6.000026819999	896
5	6930	10.096635180602	960
5	7078	10.0966788206	1024
5	7223	10.096725640599	1088
5	7242	10.096735180602	1152
5	8515	10.113853129435	1216
5	8876	11.000173179997	1280
5	10124	20.113853129435	1344
5	13868	30.113853129435	1408
9	2499	0.113853129435	1
9	2527	0.113906769433	2
9	2555	0.113960409431	3
9	2596	0.114014049429	4
9	2608	0.114024049429	5
9	2628	0.114044049429	6
9	3136	5.096635180602	7
9	3664	5.097016020597	8
9	3685	5.097022740596	9
9	3730	5.097033440598	10
9	3788	5.097043440598	11
9	4134	5.097129660595	12
9	4890	5.097357080596	13
9	6284	6.000026819999	14
9	6930	10.096635180602	15
9	7078	10.0966788206	16
9	7223	10.096725640599	17
9	7242	10.096735180602	18
9	8515	10.113853129435	19
9	8876	11.000173179997	20
9	10124	20.113853129435	21
9	13868	30.113853129435	22
12	3443	5.096957680598	1
12	8657	11.000011059999	2
12	8824	11.000063639998	3
13	3447	5.096958000598	1
13	8662	11.000011379999	2
13	8828	11.000063959998	3
16	1976	0.108864527823	1
16	2019	0.108920166742	2
16	2048	0.10897380674	3
16	2059	0.10898380674	4
16	2116	0.109037446738	5
16	2127	0.109047446738	6
16	3179	5.096661900601	7
16	3276	5.096725540599	8
16	3490	5.096973340598	9
16	3640	5.097010160597	10
16	3990	5.097092740596	11
16	4061	5.097112740596	12
16	4363	5.097182740596	13
16	4482	5.097232740596	14
16	4507	5.097242740596	15
16	4798	5.097340160597	16
16	6272	6.000026719999	17
16	7007	10.096661900601	18
16	7174	10.0967087206	19
16	7276	10.096762360598	20
16	7471	10.0968487206	21
16	7585	10.096973340598	22
16	7644	10.097006980596	23
16	8469	10.108864527823	24
16	8883	11.000183179997	25
16	10078	20.108864527823	26
16	13822	30.108864527823	27
17	484	0.097467512056	1
17	2006	0.108893446743	2
17	2034	0.108947086741	3
17	2075	0.109000726739	4
17	2087	0.109010726739	5
17	2107	0.109030726739	6
17	3236	5.0966988206	7
17	3267	5.0967188206	8
17	3534	5.096983440598	9
17	3731	5.097033440598	10
17	4200	5.097143440598	11
17	4335	5.097173440598	12
17	4596	5.097293440598	13
17	4843	5.097347080596	14
17	5208	5.097453440598	15
17	5401	5.097563440598	16
17	5453	5.097593440598	17
17	6340	6.000036819999	18
17	7049	10.096672000601	19
17	7199	10.096715640599	20
17	7397	10.096822000601	21
17	7439	10.096832000601	22
17	7611	10.096990260597	23
17	7926	10.097123900595	24
17	8223	10.097467512056	25
17	8867	11.000132079997	26
17	9869	20.097467512056	27
17	13613	30.097467512056	28
18	1976	0.108864527823	64
18	2019	0.108920166742	128
18	2048	0.10897380674	192
18	2059	0.10898380674	256
18	2116	0.109037446738	320
18	2127	0.109047446738	384
18	3179	5.096661900601	448
18	3276	5.096725540599	512
18	3490	5.096973340598	576
18	3640	5.097010160597	640
18	3990	5.097092740596	704
18	4061	5.097112740596	768
18	4363	5.097182740596	832
18	4482	5.097232740596	896
18	4507	5.097242740596	960
18	4798	5.097340160597	1024
18	6272	6.000026719999	1088
18	7007	10.096661900601	1152
18	7174	10.0967087206	1216
18	7276	10.096762360598	1280
18	7471	10.0968487206	1344
18	7585	10.096973340598	1408
18	7644	10.097006980596	1472
18	8469	10.108864527823	1536
18	8883	11.000183179997	1600
18	10078	20.108864527823	1664
18	13822	30.108864527823	1728
19	484	0.097467512056	64
19	2006	0.108893446743	128
19	2034	0.108947086741	192
19	2075	0.109000726739	256
19	2087	0.109010726739	320
19	2107	0.109030726739	384
19	3236	5.0966988206	448
19	3267	5.0967188206	512
19	3534	5.096983440598	576
19	3731	5.097033440598	640
19	4200	5.097143440598	704
19	4335	5.097173440598	768
19	4596	5.097293440598	832
19	4843	5.097347080596	896
19	5208	5.097453440598	960
19	5401	5.097563440598	1024
19	5453	5.097593440598	1088
19	6340	6.000036819999	1152
19	7049	10.096672000601	1216
19	7199	10.096715640599	1280
19	7397	10.096822000601	1344
19	7439	10.096832000601	1408
19	7611	10.096990260597	1472
19	7926	10.097123900595	1536
19	8223	10.097467512056	1600
19	8867	11.000132079997	1664
19	9869	20.097467512056	1728
19	13613	30.097467512056	1792
23	484	0.097467512056	1
23	2006	0.108893446743	2
23	2034	0.108947086741	3
23	2075	0.109000726739	4
23	2087	0.109010726739	5
23	2107	0.109030726739	6
23	3236	5.0966988206	7
23	3267	5.0967188206	8
23	3534	5.096983440598	9
23	3731	5.097033440598	10
23	4200	5.097143440598	11
23	4335	5.097173440598	12
23	4596	5.097293440598	13
23	4843	5.097347080596	14
23	5208	5.097453440598	15
23	5401	5.097563440598	16
23	5453	5.097593440598	17
23	6340	6.000036819999	18
23	7049	10.096672000601	19
23	7199	10.096715640599	20
23	7397	10.096822000601	21
23	7439	10.096832000601	22
23	7611	10.096990260597	23
23	7926	10.097123900595	24
23	8223	10.097467512056	25
23	8867	11.000132079997	26
23	9869	20.097467512056	27
23	13613	30.097467512056	28
26	8724	11.000021059999	1
26	8746	11.000022539998	2
27	8732	11.000021379999	1
27	8751	11.000022859998	2
30	1626	0.108542426749	1
30	1654	0.108596066747	2
30	1683	0.108649706745	3
30	1694	0.108659706745	4
30	1760	0.108713346743	5
30	1869	0.108786986741	6
30	3195	5.096671900601	7
30	4030	5.097103340598	8
30	4103	5.097122740596	9
30	4296	5.097162740596	10
30	4400	5.097192740596	11
30	4440	5.097212740596	12
30	4857	5.097350160597	13
30	4905	5.097360160597	14
30	5304	5.097493340598	15
30	5529	5.097633340598	16
30	5661	5.097683340598	17
30	6044	5.108786986741	18
30	6066	5.108820626739	19
30	6457	6.000244279997	20
30	7298	10.096772360598	21
30	7982	10.097160620594	22
30	8417	10.108542426749	23
30	8432	10.108786986741	24
30	8454	10.108820626739	25
30	8804	11.000038199998	26
30	10063	20.108542426749	27
30	13807	30.108542426749	28
31	134	0.087580265193	1
31	1641	0.108569346748	2
31	1669	0.108622986746	3
31	1710	0.108676626744	4
31	1722	0.108686626744	5
31	1746	0.108706626744	6
31	1774	0.108720266742	7
31	1780	0.108726986741	8
31	1793	0.108736626744	9
31	1806	0.108746626744	10
31	1819	0.108756626744	11
31	1908	0.108816626744	12
31	3379	5.096936620599	13
31	3759	5.097036620599	14
31	4012	5.097096620599	15
31	4493	5.097236620599	16
31	4688	5.097316620599	17
31	5236	5.097466620599	18
31	5441	5.097586620599	19
31	5575	5.097656620599	20
31	5789	5.097766620599	21
31	6056	5.10880390674	22
31	6440	6.000141979997	23
31	6628	10.087580265193	24
31	6895	10.096625180602	25
31	7716	10.097037080596	26
31	8444	10.10880390674	27
31	8848	11.000089399998	28
31	9673	20.087580265193	29
31	13417	30.087580265193	30
32	1626	0.108542426749	64
32	1654	0.108596066747	128
32	1683	0.108649706745	192
32	1694	0.108659706745	256
32	1760	0.108713346743	320
32	1869	0.108786986741	384
32	3195	5.096671900601	448
32	4030	5.097103340598	512
32	4103	5.097122740596	576
32	4296	5.097162740596	640
32	4400	5.097192740596	704
32	4440	5.097212740596	768
32	4857	5.097350160597	832
32	4905	5.097360160597	896
32	5304	5.097493340598	960
32	5529	5.097633340598	1024
32	5661	5.097683340598	1088
32	6044	5.108786986741	1152
32	6066	5.108820626739	1216
32	6457	6.000244279997	1280
32	7298	10.096772360598	1344
32	7982	10.097160620594	1408
32	8417	10.108542426749	1472
32	8432	10.108786986741	1536
32	8454	10.108820626739	1600
32	8804	11.000038199998	1664
32	10063	20.108542426749	1728
32	13807	30.108542426749	1792
33	134	0.087580265193	64
33	1641	0.108569346748	128
33	1669	0.108622986746	192
33	1710	0.108676626744	256
33	1722	0.108686626744	320
33	1746	0.108706626744	384
33	1774	0.108720266742	448
33	1780	0.108726986741	512
33	1793	0.108736626744	576
33	1806	0.108746626744	640
33	1819	0.108756626744	704
33	1908	0.108816626744	768
33	3379	5.096936620599	832
33	3759	5.097036620599	896
33	4012	5.097096620599	960
33	4493	5.097236620599	1024
33	4688	5.097316620599	1088
33	5236	5.097466620599	1152
33	5441	5.097586620599	1216
33	5575	5.097656620599	1280
33	5789	5.097766620599	1344
33	6056	5.10880390674	1408
33	6440	6.000141979997	1472
33	6628	10.087580265193	1536
33	6895	10.096625180602	1600
33	7716	10.097037080596	1664
33	8444	10.10880390674	1728
33	8848	11.000089399998	1792
33	9673	20.087580265193	1856
33	13417	30.087580265193	1920
37	134	0.087580265193	1
37	1641	0.108569346748	2
37	1669	0.108622986746	3
37	1710	0.108676626744	4
37	1722	0.108686626744	5
37	1746	0.108706626744	6
37	1774	0.108720266742	7
37	1780	0.108726986741	8
37	1793	0.108736626744	9
37	1806	0.108746626744	10
37	1819	0.108756626744	11
37	1908	0.108816626744	12
37	3379	5.096936620599	13
37	3759	5.097036620599	14
37	4012	5.097096620599	15
37	4493	5.097236620599	16
37	4688	5.097316620599	17
37	5236	5.097466620599	18
37	5441	5.097586620599	19
37	5575	5.097656620599	20
37	5789	5.097766620599	21
37	6056	5.10880390674	22
37	6440	6.000141979997	23
37	6628	10.087580265193	24
37	6895	10.096625180602	25
37	7716	10.097037080596	26
37	8444	10.10880390674	27
37	8848	11.000089399998	28
37	9673	20.087580265193	29
37	13417	30.087580265193	30
40	6331	6.000031059999	1
40	6426	6.000083639998	2
40	8790	11.000031059999	3
41	6335	6.000031379999	1
41	6430	6.000083959998	2
41	8794	11.000031379999	3
44	1611	0.107215587092	1
44	8402	10.107215587092	2
44	10048	20.107215587092	3
44	13792	30.107215587092	4
46	1611	0.107215587092	64
46	8402	10.107215587092	128
46	10048	20.107215587092	192
46	13792	30.107215587092	256
58	268	0.09252676747	1
58	2160	0.111075816552	2
58	2188	0.11112945655	3
58	2217	0.111183096548	4
58	2228	0.111193096548	5
58	2291	0.111246736546	6
58	2312	0.111260376544	7
58	3600	5.097000160597	8
58	4752	5.097330160597	9
58	5144	5.097423800595	10
58	5523	5.097630160597	11
58	5675	5.097686980596	12
58	6219	6.000019679997	13
58	6762	10.09252676747	14
58	6956	10.096641900601	15
58	8665	11.000016719999	16
58	9807	20.09252676747	17
58	13551	30.09252676747	18
59	2147	0.111049096553	1
59	2175	0.111102736551	2
59	2203	0.111156376549	3
59	2244	0.111210016547	4
59	2256	0.111220016547	5
59	2277	0.111240016547	6
59	2303	0.111253656545	7
59	3121	5.096625180602	8
59	3419	5.096953440598	9
59	3493	5.096973440598	10
59	4051	5.097109660595	11
59	4092	5.097119660595	12
59	4844	5.097347080596	13
59	5037	5.097387080596	14
59	5167	5.097437080596	15
59	5590	5.097660260597	16
59	5701	5.097693900595	17
59	6449	6.000173279997	18
59	6896	10.096625180602	19
59	7019	10.096665180602	20
59	7133	10.096695180602	21
59	7610	10.096990260597	22
59	8016	10.097177540593	23
59	8485	10.111049096553	24
59	10094	20.111049096553	25
59	13838	30.111049096553	26
60	268	0.09252676747	64
60	2160	0.111075816552	128
60	2188	0.11112945655	192
60	2217	0.111183096548	256
60	2228	0.111193096548	320
60	2291	0.111246736546	384
60	2312	0.111260376544	448
60	3600	5.097000160597	512
60	4752	5.097330160597	576
60	5144	5.097423800595	640
60	5523	5.097630160597	704
60	5675	5.097686980596	768
60	6219	6.000019679997	832
60	6762	10.09252676747	896
60	6956	10.096641900601	960
60	8665	11.000016719999	1024
60	9807	20.09252676747	1088
60	13551	30.09252676747	1152
61	2147	0.111049096553	64
61	2175	0.111102736551	128
61	2203	0.111156376549	192
61	2244	0.111210016547	256
61	2256	0.111220016547	320
61	2277	0.111240016547	384
61	2303	0.111253656545	448
61	3121	5.096625180602	512
61	3419	5.096953440598	576
61	3493	5.096973440598	640
61	4051	5.097109660595	704
61	4092	5.097119660595	768
61	4844	5.097347080596	832
61	5037	5.097387080596	896
61	5167	5.097437080596	960
61	5590	5.097660260597	1024
61	5701	5.097693900595	1088
61	6449	6.000173279997	1152
61	6896	10.096625180602	1216
61	7019	10.096665180602	1280
61	7133	10.096695180602	1344
61	7610	10.096990260597	1408
61	8016	10.097177540593	1472
61	8485	10.111049096553	1536
61	10094	20.111049096553	1600
61	13838	30.111049096553	1664
65	2147	0.111049096553	1
65	2175	0.111102736551	2
65	2203	0.111156376549	3
65	2244	0.111210016547	4
65	2256	0.111220016547	5
65	2277	0.111240016547	6
65	2303	0.111253656545	7
65	3121	5.096625180602	8
65	3419	5.096953440598	9
65	3493	5.096973440598	10
65	4051	5.097109660595	11
65	4092	5.097119660595	12
65	4844	5.097347080596	13
65	5037	5.097387080596	14
65	5167	5.097437080596	15
65	5590	5.097660260597	16
65	5701	5.097693900595	17
65	6449	6.000173279997	18
65	6896	10.096625180602	19
65	7019	10.096665180602	20
65	7133	10.096695180602	21
65	7610	10.096990260597	22
65	8016	10.097177540593	23
65	8485	10.111049096553	24
65	10094	20.111049096553	25
65	13838	30.111049096553	26
68	6176	6.000011059999	1
68	6189	6.000012539998	2
69	6181	6.000011379999	1
69	6193	6.000012859998	2
70	5876	5.098870518679	1
70	5881	5.098877238678	0
72	179	0.089245142813	1
72	737	0.098676318684	2
72	765	0.098729958682	3
72	806	0.09878359868	4
72	817	0.09879359868	5
72	838	0.09881359868	6
72	912	0.098867238678	7
72	3166	5.096651900601	8
72	3527	5.096980160597	9
72	3639	5.097010160597	10
72	3680	5.097020160597	11
72	3775	5.097040160597	12
72	4167	5.097136380594	13
72	4858	5.097350160597	14
72	5869	5.098867238678	15
72	5881	5.098877238678	16
72	5941	5.098936638676	17
72	6273	6.000026719999	18
72	6673	10.089245142813	19
72	7119	10.096691900601	20
72	7180	10.096711900601	21
72	7236	10.096731900601	22
72	7665	10.097016980596	23
72	7838	10.097080620594	24
72	8083	10.097204260592	25
72	8315	10.098877238678	26
72	9087	15.098877238678	27
72	9718	20.089245142813	28
72	9961	20.098877238678	29
72	11711	25.098877238678	30
72	13462	30.089245142813	31
72	13705	30.098877238678	32
72	15264	35.098877238678	33
73	724	0.098649598685	1
73	752	0.098703238683	2
73	781	0.098756878681	3
73	793	0.098766878681	4
73	850	0.098820518679	5
73	862	0.098830518679	6
73	875	0.098840518679	7
73	932	0.098880518679	8
73	1229	0.099383981001	9
73	1573	0.107066084782	10
73	1990	0.108873446743	11
73	3568	5.096993440598	12
73	3874	5.097053440598	13
73	4618	5.097303440598	14
73	4661	5.097313440598	15
73	5060	5.097393440598	16
73	5415	5.097573440598	17
73	5468	5.097603440598	18
73	5860	5.098860518679	19
73	5909	5.098885638676	20
73	5918	5.098892358675	21
73	5931	5.098904158677	22
73	6372	6.000046819999	23
73	7085	10.096682000601	24
73	7295	10.096772000601	25
73	7774	10.097053900595	26
73	7868	10.097093900595	27
73	8290	10.098649598685	28
73	8305	10.098860518679	29
73	8327	10.098894158677	30
73	8801	11.000036819999	31
73	9077	15.098860518679	32
73	9099	15.098894158677	33
73	9936	20.098649598685	34
73	9951	20.098860518679	35
73	9973	20.098894158677	36
73	11701	25.098860518679	37
73	11723	25.098894158677	38
73	13680	30.098649598685	39
73	13695	30.098860518679	40
73	13717	30.098894158677	41
73	15254	35.098860518679	42
73	15276	35.098894158677	43
74	179	0.089245142813	64
74	737	0.098676318684	128
74	765	0.098729958682	192
74	806	0.09878359868	256
74	817	0.09879359868	320
74	838	0.09881359868	384
74	912	0.098867238678	448
74	3166	5.096651900601	512
74	3527	5.096980160597	576
74	3639	5.097010160597	640
74	3680	5.097020160597	704
74	3775	5.097040160597	768
74	4167	5.097136380594	832