version 2
run ping_H0-H3-0-20120510-19:48:55-21388
attr configname ping_H0-H3
attr datetime 20120510-19:48:55
attr experiment ping_H0-H3
attr inifile omnetpp.ini
attr iterationvars ""
attr iterationvars2 $repetition=0
attr measurement ""
attr network homenet
attr processid 21388
attr repetition 0
attr replication #0
attr resultdir results
attr runnumber 0
attr seedset 0

vector 212  homenet.office.eth[3].mac  framesSent  ETV
vector 214  homenet.office.eth[3].mac  bytesSent  ETV
vector 17  homenet.room_A.eth[1].mac  framesReceivedOK  ETV
vector 19  homenet.room_A.eth[1].mac  bytesReceivedOK  ETV
vector 23  homenet.room_A.eth[1].mac  framesPassedToHL  ETV
vector 282  homenet.room_B.eth[3].mac  framesSent  ETV
vector 284  homenet.room_B.eth[3].mac  bytesSent  ETV
vector 339  homenet.living_room.eth[2].mac  framesReceivedOK  ETV
vector 341  homenet.living_room.eth[2].mac  bytesReceivedOK  ETV
vector 345  homenet.living_room.eth[2].mac  framesPassedToHL  ETV
vector 86  homenet.garage.eth[0].mac  framesSent  ETV
vector 88  homenet.garage.eth[0].mac  bytesSent  ETV
vector 477  homenet.Host5.eth[0].mac  framesReceivedOK  ETV
vector 479  homenet.Host5.eth[0].mac  bytesReceivedOK  ETV
vector 483  homenet.Host5.eth[0].mac  framesPassedToHL  ETV
vector 240  homenet.room_B.eth[0].mac  framesSent  ETV
vector 242  homenet.room_B.eth[0].mac  bytesSent  ETV
vector 563  homenet.Emitter0.stats.mac[1]  framesReceivedOK  ETV
vector 565  homenet.Emitter0.stats.mac[1]  bytesReceivedOK  ETV
vector 569  homenet.Emitter0.stats.mac[1]  framesPassedToHL  ETV
vector 549  homenet.Emitter0.stats.relayUnit  "buffer level"  ETV
vector 550  homenet.Emitter0.stats.mac[0]  framesSent  ETV
vector 552  homenet.Emitter0.stats.mac[0]  bytesSent  ETV
vector 397  homenet.Host0.eth[0].mac  framesReceivedOK  ETV
vector 399  homenet.Host0.eth[0].mac  bytesReceivedOK  ETV
vector 403  homenet.Host0.eth[0].mac  framesPassedToHL  ETV
vector 2  homenet.room_A.eth[0].mac  framesSent  ETV
vector 4  homenet.room_A.eth[0].mac  bytesSent  ETV
vector 269  homenet.room_B.eth[2].mac  framesReceivedOK  ETV
vector 271  homenet.room_B.eth[2].mac  bytesReceivedOK  ETV
vector 275  homenet.room_B.eth[2].mac  framesPassedToHL  ETV
vector 338  homenet.living_room.eth[2].mac  framesSent  ETV
vector 340  homenet.living_room.eth[2].mac  bytesSent  ETV
vector 283  homenet.room_B.eth[3].mac  framesReceivedOK  ETV
vector 285  homenet.room_B.eth[3].mac  bytesReceivedOK  ETV
vector 289  homenet.room_B.eth[3].mac  framesPassedToHL  ETV
vector 100  homenet.garage.eth[1].mac  framesSent  ETV
vector 102  homenet.garage.eth[1].mac  bytesSent  ETV
vector 297  homenet.room_B.eth[4].mac  framesReceivedOK  ETV
vector 299  homenet.room_B.eth[4].mac  bytesReceivedOK  ETV
vector 303  homenet.room_B.eth[4].mac  framesPassedToHL  ETV
vector 58  homenet.room_C.eth[1].mac  framesSent  ETV
vector 60  homenet.room_C.eth[1].mac  bytesSent  ETV
vector 255  homenet.room_B.eth[1].mac  framesReceivedOK  ETV
vector 257  homenet.room_B.eth[1].mac  bytesReceivedOK  ETV
vector 261  homenet.room_B.eth[1].mac  framesPassedToHL  ETV
vector 254  homenet.room_B.eth[1].mac  framesSent  ETV
vector 256  homenet.room_B.eth[1].mac  bytesSent  ETV
vector 59  homenet.room_C.eth[1].mac  framesReceivedOK  ETV
vector 61  homenet.room_C.eth[1].mac  bytesReceivedOK  ETV
vector 65  homenet.room_C.eth[1].mac  framesPassedToHL  ETV
vector 296  homenet.room_B.eth[4].mac  framesSent  ETV
vector 298  homenet.room_B.eth[4].mac  bytesSent  ETV
vector 101  homenet.garage.eth[1].mac  framesReceivedOK  ETV
vector 103  homenet.garage.eth[1].mac  bytesReceivedOK  ETV
vector 107  homenet.garage.eth[1].mac  framesPassedToHL  ETV
vector 294  homenet.room_B.eth[4].queue  "queue length"  ETV
vector 44  homenet.room_C.eth[0].mac  framesSent  ETV
vector 46  homenet.room_C.eth[0].mac  bytesSent  ETV
vector 413  homenet.Host1.eth[0].mac  framesReceivedOK  ETV
vector 415  homenet.Host1.eth[0].mac  bytesReceivedOK  ETV
vector 419  homenet.Host1.eth[0].mac  framesPassedToHL  ETV
vector 16  homenet.room_A.eth[1].mac  framesSent  ETV
vector 18  homenet.room_A.eth[1].mac  bytesSent  ETV
vector 213  homenet.office.eth[3].mac  framesReceivedOK  ETV
vector 215  homenet.office.eth[3].mac  bytesReceivedOK  ETV
vector 219  homenet.office.eth[3].mac  framesPassedToHL  ETV
vector 142  homenet.kitchen.eth[1].mac  framesSent  ETV
vector 144  homenet.kitchen.eth[1].mac  bytesSent  ETV
vector 381  homenet.living_room.eth[5].mac  framesReceivedOK  ETV
vector 383  homenet.living_room.eth[5].mac  bytesReceivedOK  ETV
vector 387  homenet.living_room.eth[5].mac  framesPassedToHL  ETV
vector 128  homenet.kitchen.eth[0].mac  framesSent  ETV
vector 130  homenet.kitchen.eth[0].mac  bytesSent  ETV
vector 506  homenet.Receptor3.stats.mac[0]  framesReceivedOK  ETV
vector 508  homenet.Receptor3.stats.mac[0]  bytesReceivedOK  ETV
vector 512  homenet.Receptor3.stats.mac[0]  framesPassedToHL  ETV
vector 504  homenet.Receptor3.stats.relayUnit  "buffer level"  ETV
vector 517  homenet.Receptor3.stats.mac[1]  framesSent  ETV
vector 519  homenet.Receptor3.stats.mac[1]  bytesSent  ETV
vector 445  homenet.Host3.eth[0].mac  framesReceivedOK  ETV
vector 447  homenet.Host3.eth[0].mac  bytesReceivedOK  ETV
vector 451  homenet.Host3.eth[0].mac  framesPassedToHL  ETV
vector 366  homenet.living_room.eth[4].mac  framesSent  ETV
vector 368  homenet.living_room.eth[4].mac  bytesSent  ETV
vector 199  homenet.office.eth[2].mac  framesReceivedOK  ETV
vector 201  homenet.office.eth[2].mac  bytesReceivedOK  ETV
vector 205  homenet.office.eth[2].mac  framesPassedToHL  ETV
vector 156  homenet.kitchen.eth[2].mac  framesSent  ETV
vector 158  homenet.kitchen.eth[2].mac  bytesSent  ETV
vector 185  homenet.office.eth[1].mac  framesReceivedOK  ETV
vector 187  homenet.office.eth[1].mac  bytesReceivedOK  ETV
vector 191  homenet.office.eth[1].mac  framesPassedToHL  ETV
vector 268  homenet.room_B.eth[2].mac  framesSent  ETV
vector 270  homenet.room_B.eth[2].mac  bytesSent  ETV
vector 3  homenet.room_A.eth[0].mac  framesReceivedOK  ETV
vector 5  homenet.room_A.eth[0].mac  bytesReceivedOK  ETV
vector 9  homenet.room_A.eth[0].mac  framesPassedToHL  ETV
vector 266  homenet.room_B.eth[2].queue  "queue length"  ETV
vector 12  homenet.room_A.eth[0].mac  collisions  ETV
vector 278  homenet.room_B.eth[2].mac  collisions  ETV
vector 13  homenet.room_A.eth[0].mac  backoffs  ETV
vector 279  homenet.room_B.eth[2].mac  backoffs  ETV
vector 310  homenet.living_room.eth[0].mac  framesSent  ETV
vector 312  homenet.living_room.eth[0].mac  bytesSent  ETV
vector 461  homenet.Host4.eth[0].mac  framesReceivedOK  ETV
vector 463  homenet.Host4.eth[0].mac  bytesReceivedOK  ETV
vector 467  homenet.Host4.eth[0].mac  framesPassedToHL  ETV
vector 380  homenet.living_room.eth[5].mac  framesSent  ETV
vector 382  homenet.living_room.eth[5].mac  bytesSent  ETV
vector 143  homenet.kitchen.eth[1].mac  framesReceivedOK  ETV
vector 145  homenet.kitchen.eth[1].mac  bytesReceivedOK  ETV
vector 149  homenet.kitchen.eth[1].mac  framesPassedToHL  ETV
vector 352  homenet.living_room.eth[3].mac  framesSent  ETV
vector 354  homenet.living_room.eth[3].mac  bytesSent  ETV
vector 31  homenet.room_A.eth[2].mac  framesReceivedOK  ETV
vector 33  homenet.room_A.eth[2].mac  bytesReceivedOK  ETV
vector 37  homenet.room_A.eth[2].mac  framesPassedToHL  ETV
vector 226  homenet.office.eth[4].mac  framesSent  ETV
vector 228  homenet.office.eth[4].mac  bytesSent  ETV
vector 73  homenet.room_C.eth[2].mac  framesReceivedOK  ETV
vector 75  homenet.room_C.eth[2].mac  bytesReceivedOK  ETV
vector 79  homenet.room_C.eth[2].mac  framesPassedToHL  ETV
vector 72  homenet.room_C.eth[2].mac  framesSent  ETV
vector 74  homenet.room_C.eth[2].mac  bytesSent  ETV
vector 227  homenet.office.eth[4].mac  framesReceivedOK  ETV
vector 229  homenet.office.eth[4].mac  bytesReceivedOK  ETV
vector 233  homenet.office.eth[4].mac  framesPassedToHL  ETV
vector 324  homenet.living_room.eth[1].mac  framesSent  ETV
vector 326  homenet.living_room.eth[1].mac  bytesSent  ETV
vector 115  homenet.garage.eth[2].mac  framesReceivedOK  ETV
vector 117  homenet.garage.eth[2].mac  bytesReceivedOK  ETV
vector 121  homenet.garage.eth[2].mac  framesPassedToHL  ETV
vector 184  homenet.office.eth[1].mac  framesSent  ETV
vector 186  homenet.office.eth[1].mac  bytesSent  ETV
vector 157  homenet.kitchen.eth[2].mac  framesReceivedOK  ETV
vector 159  homenet.kitchen.eth[2].mac  bytesReceivedOK  ETV
vector 163  homenet.kitchen.eth[2].mac  framesPassedToHL  ETV
vector 154  homenet.kitchen.eth[2].queue  "queue length"  ETV
vector 114  homenet.garage.eth[2].mac  framesSent  ETV
vector 116  homenet.garage.eth[2].mac  bytesSent  ETV
vector 325  homenet.living_room.eth[1].mac  framesReceivedOK  ETV
vector 327  homenet.living_room.eth[1].mac  bytesReceivedOK  ETV
vector 331  homenet.living_room.eth[1].mac  framesPassedToHL  ETV
vector 198  homenet.office.eth[2].mac  framesSent  ETV
vector 200  homenet.office.eth[2].mac  bytesSent  ETV
vector 367  homenet.living_room.eth[4].mac  framesReceivedOK  ETV
vector 369  homenet.living_room.eth[4].mac  bytesReceivedOK  ETV
vector 373  homenet.living_room.eth[4].mac  framesPassedToHL  ETV
vector 170  homenet.office.eth[0].mac  framesSent  ETV
vector 172  homenet.office.eth[0].mac  bytesSent  ETV
vector 429  homenet.Host2.eth[0].mac  framesReceivedOK  ETV
vector 431  homenet.Host2.eth[0].mac  bytesReceivedOK  ETV
vector 435  homenet.Host2.eth[0].mac  framesPassedToHL  ETV
vector 30  homenet.room_A.eth[2].mac  framesSent  ETV
vector 32  homenet.room_A.eth[2].mac  bytesSent  ETV
vector 353  homenet.living_room.eth[3].mac  framesReceivedOK  ETV
vector 355  homenet.living_room.eth[3].mac  bytesReceivedOK  ETV
vector 359  homenet.living_room.eth[3].mac  framesPassedToHL  ETV
vector 280  homenet.room_B.eth[3].queue  "queue length"  ETV
vector 336  homenet.living_room.eth[2].queue  "queue length"  ETV
vector 348  homenet.living_room.eth[2].mac  collisions  ETV
vector 292  homenet.room_B.eth[3].mac  collisions  ETV
vector 349  homenet.living_room.eth[2].mac  backoffs  ETV
vector 293  homenet.room_B.eth[3].mac  backoffs  ETV
vector 152  homenet.kitchen.eth[1].mac  collisions  ETV
vector 390  homenet.living_room.eth[5].mac  collisions  ETV
vector 153  homenet.kitchen.eth[1].mac  backoffs  ETV
vector 391  homenet.living_room.eth[5].mac  backoffs  ETV
vector 140  homenet.kitchen.eth[1].queue  "queue length"  ETV
vector 378  homenet.living_room.eth[5].queue  "queue length"  ETV
vector 236  homenet.office.eth[4].mac  collisions  ETV
vector 82  homenet.room_C.eth[2].mac  collisions  ETV
vector 237  homenet.office.eth[4].mac  backoffs  ETV
vector 83  homenet.room_C.eth[2].mac  backoffs  ETV
vector 224  homenet.office.eth[4].queue  "queue length"  ETV
vector 222  homenet.office.eth[3].mac  collisions  ETV
vector 26  homenet.room_A.eth[1].mac  collisions  ETV
vector 223  homenet.office.eth[3].mac  backoffs  ETV
vector 27  homenet.room_A.eth[1].mac  backoffs  ETV
vector 210  homenet.office.eth[3].queue  "queue length"  ETV
vector 112  homenet.garage.eth[2].queue  "queue length"  ETV
vector 14  homenet.room_A.eth[1].queue  "queue length"  ETV
vector 56  homenet.room_C.eth[1].queue  "queue length"  ETV
vector 252  homenet.room_B.eth[1].queue  "queue length"  ETV
vector 264  homenet.room_B.eth[1].mac  collisions  ETV
vector 68  homenet.room_C.eth[1].mac  collisions  ETV
vector 265  homenet.room_B.eth[1].mac  backoffs  ETV
vector 69  homenet.room_C.eth[1].mac  backoffs  ETV
vector 98  homenet.garage.eth[1].queue  "queue length"  ETV
vector 306  homenet.room_B.eth[4].mac  collisions  ETV
vector 110  homenet.garage.eth[1].mac  collisions  ETV
vector 307  homenet.room_B.eth[4].mac  backoffs  ETV
vector 111  homenet.garage.eth[1].mac  backoffs  ETV
vector 362  homenet.living_room.eth[3].mac  collisions  ETV
vector 40  homenet.room_A.eth[2].mac  collisions  ETV
vector 363  homenet.living_room.eth[3].mac  backoffs  ETV
vector 41  homenet.room_A.eth[2].mac  backoffs  ETV
vector 396  homenet.Host0.eth[0].mac  framesSent  ETV
vector 398  homenet.Host0.eth[0].mac  bytesSent  ETV
vector 551  homenet.Emitter0.stats.mac[0]  framesReceivedOK  ETV
vector 553  homenet.Emitter0.stats.mac[0]  bytesReceivedOK  ETV
vector 557  homenet.Emitter0.stats.mac[0]  framesPassedToHL  ETV
vector 562  homenet.Emitter0.stats.mac[1]  framesSent  ETV
vector 564  homenet.Emitter0.stats.mac[1]  bytesSent  ETV
vector 241  homenet.room_B.eth[0].mac  framesReceivedOK  ETV
vector 243  homenet.room_B.eth[0].mac  bytesReceivedOK  ETV
vector 247  homenet.room_B.eth[0].mac  framesPassedToHL  ETV
2	188	0.089245142813	1
2	1166	0.099122961007	2
2	1194	0.099176601005	3
2	1223	0.099230241003	4
2	1234	0.099240241003	5
2	1299	0.099293881001	6
2	1350	0.099310480997	7
2	1525	0.099408400996	8
2	3227	5.090090604542	9
2	3497	5.09016990454	10
2	3953	5.090295024537	11
2	4116	5.090323544538	12
2	4319	5.090382944536	13
2	6152	5.099363881001	14
2	6178	5.099407520999	15
2	6425	6.000016719999	16
2	6920	10.089245142813	17
2	8193	11.000016719999	18
3	1153	0.099096241008	1
3	1181	0.099149881006	2
3	1209	0.099203521004	3
3	1250	0.099257161002	4
3	1262	0.099267161002	5
3	1285	0.099287161002	6
3	1316	0.099300801	7
3	1434	0.099361680997	8
3	1446	0.099368400996	9
3	1499	0.099397161002	10
3	1906	0.102597180803	11
3	3379	5.090133184541	12
3	4210	5.090346224537	13
3	4243	5.090352944536	14
3	4566	5.090453184541	15
3	5048	5.090590704538	16
3	6142	5.099347161002	17
3	6164	5.099380801	18
3	6193	5.099434440998	19
3	6510	6.000026819999	20
3	7075	10.090070704542	21
3	7455	10.09023434454	22
3	7907	10.099096241008	23
4	188	0.089245142813	64
4	1166	0.099122961007	128
4	1194	0.099176601005	192
4	1223	0.099230241003	256
4	1234	0.099240241003	320
4	1299	0.099293881001	384
4	1350	0.099310480997	448
4	1525	0.099408400996	512
4	3227	5.090090604542	576
4	3497	5.09016990454	640
4	3953	5.090295024537	704
4	4116	5.090323544538	768
4	4319	5.090382944536	832
4	6152	5.099363881001	896
4	6178	5.099407520999	960
4	6425	6.000016719999	1024
4	6920	10.089245142813	1088
4	8193	11.000016719999	1152
5	1153	0.099096241008	64
5	1181	0.099149881006	128
5	1209	0.099203521004	192
5	1250	0.099257161002	256
5	1262	0.099267161002	320
5	1285	0.099287161002	384
5	1316	0.099300801	448
5	1434	0.099361680997	512
5	1446	0.099368400996	576
5	1499	0.099397161002	640
5	1906	0.102597180803	704
5	3379	5.090133184541	768
5	4210	5.090346224537	832
5	4243	5.090352944536	896
5	4566	5.090453184541	960
5	5048	5.090590704538	1024
5	6142	5.099347161002	1088
5	6164	5.099380801	1152
5	6193	5.099434440998	1216
5	6510	6.000026819999	1280
5	7075	10.090070704542	1344
5	7455	10.09023434454	1408
5	7907	10.099096241008	1472
9	1153	0.099096241008	1
9	1181	0.099149881006	2
9	1209	0.099203521004	3
9	1250	0.099257161002	4
9	1262	0.099267161002	5
9	1285	0.099287161002	6
9	1316	0.099300801	7
9	1434	0.099361680997	8
9	1446	0.099368400996	9
9	1499	0.099397161002	10
9	1906	0.102597180803	11
9	3379	5.090133184541	12
9	4210	5.090346224537	13
9	4243	5.090352944536	14
9	4566	5.090453184541	15
9	5048	5.090590704538	16
9	6142	5.099347161002	17
9	6164	5.099380801	18
9	6193	5.099434440998	19
9	6510	6.000026819999	20
9	7075	10.090070704542	21
9	7455	10.09023434454	22
9	7907	10.099096241008	23
12	1321	0.099301760999	1
12	1333	0.099303240998	2
12	3907	5.090287784538	3
13	1325	0.099302080999	1
13	1337	0.099303560998	2
13	3911	5.090288104538	3
14	5099	5.090610704538	1
14	5179	5.09063686454	0
14	6062	5.097067675965	1
14	6102	5.097230755962	0
16	910	0.096859835972	1
16	938	0.09691347597	2
16	967	0.096967115968	3
16	978	0.096977115968	4
16	1034	0.097030755966	5
16	1051	0.097050755966	6
16	1378	0.099333881001	7
16	1396	0.099343881001	8
16	1503	0.099398400996	9
16	1551	0.099418400996	10
16	1575	0.099428400996	11
16	1935	0.102623900802	12
16	3261	5.090100604542	13
16	3391	5.090137424541	14
16	3457	5.09015990454	15
16	3527	5.09017990454	16
16	4000	5.090303544538	17
16	4500	5.090427424541	18
16	5179	5.09063686454	19
16	5204	5.090643584539	20
16	5378	5.090734984539	21
16	5402	5.090764984539	22
16	6031	5.097050755966	23
16	6102	5.097230755962	24
16	6110	5.097237475961	25
16	6498	6.000026719999	26
16	7167	10.090097424541	27
16	7365	10.090187424541	28
16	7534	10.090261064539	29
16	7781	10.096859835972	30
16	7807	10.097074395964	31
16	8413	15.090261064539	32
16	8435	15.090294704537	33
17	119	0.072665581895	1
17	925	0.096886755971	2
17	953	0.096940395969	3
17	994	0.096994035967	4
17	1006	0.097004035967	5
17	1025	0.097024035967	6
17	1063	0.097057675965	7
17	3298	5.090110704542	8
17	3425	5.090150704542	9
17	3862	5.090280704542	10
17	4380	5.090400704542	11
17	4541	5.090440704542	12
17	5297	5.09068826454	13
17	5315	5.090694984539	14
17	5329	5.090701704538	15
17	5343	5.090708424537	16
17	5354	5.090715144536	17
17	5366	5.090721864535	18
17	6043	5.097057675965	19
17	6058	5.097067675965	20
17	6094	5.097128555962	21
17	6127	5.097267675961	22
17	6578	6.000036819999	23
17	6851	10.072665581895	24
17	7308	10.090160704542	25
17	7331	10.090170704542	26
17	7797	10.097057675965	27
17	7819	10.097091315963	28
17	8425	15.090277984538	29
17	8451	15.097057675965	30
18	910	0.096859835972	64
18	938	0.09691347597	128
18	967	0.096967115968	192
18	978	0.096977115968	256
18	1034	0.097030755966	320
18	1051	0.097050755966	384
18	1378	0.099333881001	448
18	1396	0.099343881001	512
18	1503	0.099398400996	576
18	1551	0.099418400996	640
18	1575	0.099428400996	704
18	1935	0.102623900802	768
18	3261	5.090100604542	832
18	3391	5.090137424541	896
18	3457	5.09015990454	960
18	3527	5.09017990454	1024
18	4000	5.090303544538	1088
18	4500	5.090427424541	1152
18	5179	5.09063686454	1216
18	5204	5.090643584539	1280
18	5378	5.090734984539	1344
18	5402	5.090764984539	1408
18	6031	5.097050755966	1472
18	6102	5.097230755962	1536
18	6110	5.097237475961	1600
18	6498	6.000026719999	1664
18	7167	10.090097424541	1728
18	7365	10.090187424541	1792
18	7534	10.090261064539	1856
18	7781	10.096859835972	1920
18	7807	10.097074395964	1984
18	8413	15.090261064539	2048
18	8435	15.090294704537	2112
19	119	0.072665581895	64
19	925	0.096886755971	128
19	953	0.096940395969	192
19	994	0.096994035967	256
19	1006	0.097004035967	320
19	1025	0.097024035967	384
19	1063	0.097057675965	448
19	3298	5.090110704542	512
19	3425	5.090150704542	576
19	3862	5.090280704542	640
19	4380	5.090400704542	704
19	4541	5.090440704542	768
19	5297	5.09068826454	832
19	5315	5.090694984539	896
19	5329	5.090701704538	960
19	5343	5.090708424537	1024
19	5354	5.090715144536	1088
19	5366	5.090721864535	1152
19	6043	5.097057675965	1216
19	6058	5.097067675965	1280
19	6094	5.097128555962	1344
19	6127	5.097267675961	1408
19	6578	6.000036819999	1472
19	6851	10.072665581895	1536
19	7308	10.090160704542	1600
19	7331	10.090170704542	1664
19	7797	10.097057675965	1728
19	7819	10.097091315963	1792
19	8425	15.090277984538	1856
19	8451	15.097057675965	1920
23	119	0.072665581895	1
23	925	0.096886755971	2
23	953	0.096940395969	3
23	994	0.096994035967	4
23	1006	0.097004035967	5
23	1025	0.097024035967	6
23	1063	0.097057675965	7
23	3298	5.090110704542	8
23	3425	5.090150704542	9
23	3862	5.090280704542	10
23	4380	5.090400704542	11
23	4541	5.090440704542	12
23	5297	5.09068826454	13
23	5315	5.090694984539	14
23	5329	5.090701704538	15
23	5343	5.090708424537	16
23	5354	5.090715144536	17
23	5366	5.090721864535	18
23	6043	5.097057675965	19
23	6058	5.097067675965	20
23	6094	5.097128555962	21
23	6127	5.097267675961	22
23	6578	6.000036819999	23
23	6851	10.072665581895	24
23	7308	10.090160704542	25
23	7331	10.090170704542	26
23	7797	10.097057675965	27
23	7819	10.097091315963	28
23	8425	15.090277984538	29
23	8451	15.097057675965	30
26	4673	5.090474944542	1
26	4906	5.090527424541	2
26	6068	5.097068635964	3
26	6080	5.097070115963	4
27	4677	5.090475264542	1
27	4913	5.090527744541	2
27	6072	5.097068955964	3
27	6084	5.097070435963	4
30	2729	0.119780008279	1
30	2757	0.119833648277	2
30	2786	0.119887288275	3
30	2797	0.119897288275	4
30	2854	0.119950928273	5
30	2865	0.119960928273	6
30	3550	5.09018990454	7
30	4160	5.090333544538	8
30	4734	5.09048990454	9
30	4884	5.090523544538	10
30	5142	5.090627424537	11
30	5521	5.090853544538	12
30	5658	5.090983544538	13
30	6695	6.000399359996	14
30	7072	10.090070604542	15
30	7194	10.090107424541	16
30	7252	10.090127424541	17
30	7579	10.09027424454	18
30	7642	10.09029424454	19
30	8073	10.119780008279	20
31	1951	0.103069880731	1
31	2744	0.119806928278	2
31	2772	0.119860568276	3
31	2813	0.119914208274	4
31	2825	0.119924208274	5
31	2845	0.119944208274	6
31	3145	5.090063884543	7
31	3643	5.090226824539	8
31	3811	5.090266824539	9
31	4281	5.090366824539	10
31	4762	5.090496824539	11
31	4927	5.090530464537	12
31	5463	5.090826824539	13
31	5537	5.090860464537	14
31	5605	5.090956824539	15
31	5685	5.090996824539	16
31	5793	5.091106824539	17
31	6687	6.000348259996	18
31	7023	10.090053884543	19
31	7139	10.090087524541	20
31	7554	10.090267524541	21
31	7719	10.090357524541	22
31	7953	10.103069880731	23
32	2729	0.119780008279	64
32	2757	0.119833648277	128
32	2786	0.119887288275	192
32	2797	0.119897288275	256
32	2854	0.119950928273	320
32	2865	0.119960928273	384
32	3550	5.09018990454	448
32	4160	5.090333544538	512
32	4734	5.09048990454	576
32	4884	5.090523544538	640
32	5142	5.090627424537	704
32	5521	5.090853544538	768
32	5658	5.090983544538	832
32	6695	6.000399359996	896
32	7072	10.090070604542	960
32	7194	10.090107424541	1024
32	7252	10.090127424541	1088
32	7579	10.09027424454	1152
32	7642	10.09029424454	1216
32	8073	10.119780008279	1280
33	1951	0.103069880731	64
33	2744	0.119806928278	128
33	2772	0.119860568276	192
33	2813	0.119914208274	256
33	2825	0.119924208274	320
33	2845	0.119944208274	384
33	3145	5.090063884543	448
33	3643	5.090226824539	512
33	3811	5.090266824539	576
33	4281	5.090366824539	640
33	4762	5.090496824539	704
33	4927	5.090530464537	768
33	5463	5.090826824539	832
33	5537	5.090860464537	896
33	5605	5.090956824539	960
33	5685	5.090996824539	1024
33	5793	5.091106824539	1088
33	6687	6.000348259996	1152
33	7023	10.090053884543	1216
33	7139	10.090087524541	1280
33	7554	10.090267524541	1344
33	7719	10.090357524541	1408
33	7953	10.103069880731	1472
37	1951	0.103069880731	1
37	2744	0.119806928278	2
37	2772	0.119860568276	3
37	2813	0.119914208274	4
37	2825	0.119924208274	5
37	2845	0.119944208274	6
37	3145	5.090063884543	7
37	3643	5.090226824539	8
37	3811	5.090266824539	9
37	4281	5.090366824539	10
37	4762	5.090496824539	11
37	4927	5.090530464537	12
37	5463	5.090826824539	13
37	5537	5.090860464537	14
37	5605	5.090956824539	15
37	5685	5.090996824539	16
37	5793	5.091106824539	17
37	6687	6.000348259996	18
37	7023	10.090053884543	19
37	7139	10.090087524541	20
37	7554	10.090267524541	21
37	7719	10.090357524541	22
37	7953	10.103069880731	23
40	6557	6.000031059999	1
40	6569	6.000032539998	2
40	6675	6.000187519997	3
41	6561	6.000031379999	1
41	6573	6.000032859998	2
41	6679	6.000187839997	3
44	895	0.096363700611	1
44	7766	10.096363700611	2
46	895	0.096363700611	64
46	7766	10.096363700611	128
56	5849	5.092725373718	1
56	5854	5.092732093717	0
58	387	0.09027874745	1
58	416	0.092517533725	2
58	444	0.092571173723	3
58	473	0.092624813721	4
58	484	0.092634813721	5
58	546	0.092688453719	6
58	591	0.092722093717	7
58	3453	5.090157424541	8
58	4142	5.09032990454	9
58	4181	5.09033990454	10
58	4456	5.09041990454	11
58	4987	5.090563784539	12
58	5842	5.092722093717	13
58	5854	5.092732093717	14
58	5879	5.092740293715	15
58	6445	6.000019679997	16
58	7402	10.090207424541	17
58	7604	10.09027874745	18
58	8258	11.000121979997	19
59	403	0.092490813726	1
59	431	0.092544453724	2
59	459	0.092598093722	3
59	500	0.09265173372	4
59	512	0.09266173372	5
59	532	0.09268173372	6
59	555	0.092695373718	7
59	575	0.092715373718	8
59	815	0.094837503711	9
59	851	0.094857503711	10
59	1403	0.099347161002	11
59	1461	0.099377161002	12
59	1479	0.099387161002	13
59	1892	0.102587180803	14
59	3340	5.090123184541	15
59	3713	5.090243184541	16
59	3877	5.090283184541	17
59	4351	5.090393184541	18
59	4494	5.090426824539	19
59	5833	5.092715373718	20
59	5897	5.092791493715	21
59	5905	5.092798213714	22
59	5913	5.092804933713	23
59	6666	6.000173279997	24
59	7047	10.090060704542	25
59	7736	10.092490813726	26
59	8214	11.000019779997	27
60	387	0.09027874745	64
60	416	0.092517533725	128
60	444	0.092571173723	192
60	473	0.092624813721	256
60	484	0.092634813721	320
60	546	0.092688453719	384
60	591	0.092722093717	448
60	3453	5.090157424541	512
60	4142	5.09032990454	576
60	4181	5.09033990454	640
60	4456	5.09041990454	704
60	4987	5.090563784539	768
60	5842	5.092722093717	832
60	5854	5.092732093717	896
60	5879	5.092740293715	960
60	6445	6.000019679997	1024
60	7402	10.090207424541	1088
60	7604	10.09027874745	1152
60	8258	11.000121979997	1216
61	403	0.092490813726	64
61	431	0.092544453724	128
61	459	0.092598093722	192
61	500	0.09265173372	256
61	512	0.09266173372	320
61	532	0.09268173372	384
61	555	0.092695373718	448
61	575	0.092715373718	512
61	815	0.094837503711	576
61	851	0.094857503711	640
61	1403	0.099347161002	704
61	1461	0.099377161002	768
61	1479	0.099387161002	832
61	1892	0.102587180803	896
61	3340	5.090123184541	960
61	3713	5.090243184541	1024
61	3877	5.090283184541	1088
61	4351	5.090393184541	1152
61	4494	5.090426824539	1216
61	5833	5.092715373718	1280
61	5897	5.092791493715	1344
61	5905	5.092798213714	1408
61	5913	5.092804933713	1472
61	6666	6.000173279997	1536
61	7047	10.090060704542	1600
61	7736	10.092490813726	1664
61	8214	11.000019779997	1728
65	403	0.092490813726	1
65	431	0.092544453724	2
65	459	0.092598093722	3
65	500	0.09265173372	4
65	512	0.09266173372	5
65	532	0.09268173372	6
65	555	0.092695373718	7
65	575	0.092715373718	8
65	815	0.094837503711	9
65	851	0.094857503711	10
65	1403	0.099347161002	11
65	1461	0.099377161002	12
65	1479	0.099387161002	13
65	1892	0.102587180803	14
65	3340	5.090123184541	15
65	3713	5.090243184541	16
65	3877	5.090283184541	17
65	4351	5.090393184541	18
65	4494	5.090426824539	19
65	5833	5.092715373718	20
65	5897	5.092791493715	21
65	5905	5.092798213714	22
65	5913	5.092804933713	23
65	6666	6.000173279997	24
65	7047	10.090060704542	25
65	7736	10.092490813726	26
65	8214	11.000019779997	27
68	5869	5.092733253716	1
68	6402	6.000011059999	2
68	6415	6.000012539998	3
68	8170	11.000011059999	4
68	8183	11.000012539998	5
69	5873	5.092733573716	1
69	6407	6.000011379999	2
69	6419	6.000012859998	3
69	8175	11.000011379999	4
69	8187	11.000012859998	5
72	1980	0.10676142479	1
72	2008	0.106815064788	2
72	2036	0.106868704786	3
72	2077	0.106922344784	4
72	2088	0.106932344784	5
72	2109	0.106952344784	6
72	2136	0.106965984782	7
72	3493	5.090167424541	8
72	3772	5.090257424541	9
72	3902	5.090287424541	10
72	4072	5.09031346454	11
72	4231	5.09034990454	12
72	4788	5.090503784539	13
72	4904	5.090527424541	14
72	6499	6.000026719999	15
72	7135	10.090087424541	16
72	7222	10.090117424541	17
72	7982	10.10676142479	18
72	8231	11.000026719999	19
73	1966	0.105651151584	1
73	1995	0.106788344789	2
73	2023	0.106841984787	3
73	2052	0.106895624785	4
73	2064	0.106905624785	5
73	2126	0.106959264783	6
73	2147	0.106972904781	7
73	3334	5.090120704542	8
73	3653	5.090230704542	9
73	3688	5.090240704542	10
73	3947	5.09029434454	11
73	4628	5.09046706454	12
73	4660	5.090473784539	13
73	4697	5.090480504538	14
73	4729	5.090487224537	15
73	4754	5.090493944536	16
73	4870	5.090520704542	17
73	5101	5.090610704542	18
73	6610	6.000046819999	19
73	7180	10.090100704542	20
73	7347	10.090180704542	21
73	7968	10.105651151584	22
73	8201	11.000016819999	23
74	1980	0.10676142479	64
74	2008	0.106815064788	128
74	2036	0.106868704786	192
74	2077	0.106922344784	256
74	2088	0.106932344784	320
74	2109	0.106952344784	384
74	2136	0.106965984782	448
74	3493	5.090167424541	512
74	3772	5.090257424541	576
74	3902	5.090287424541	640
74	4072	5.09031346454	704
74	4231	5.09034990454	768
74	4788	5.090503784539	832
74	4904	5.090527424541	896
74	6499	6.000026719999	960
74	7135	10.090087424541	1024
74	7222	10.090117424541	1088
74	7982	10.10676142479	1152
74	8231	11.000026719999	1216
75	1966	0.105651151584	64
75	1995	0.106788344789	128
75	2023	0.106841984787	192
75	2052	0.106895624785	256
75	2064	0.106905624785	320
75	2126	0.106959264783	384
75	2147	0.106972904781	448
75	3334	5.090120704542	512
75	3653	5.090230704542	576
75	3688	5.090240704542	640
75	3947	5.09029434454	704
75	4628	5.09046706454	768
75	4660	5.090473784539	832
75	4697	5.090480504538	896
75	4729	5.090487224537	960
75	4754	5.090493944536	1024
75	4870	5.090520704542	1088
75	5101	5.090610704542	1152
75	6610	6.000046819999	1216
75	7180	10.090100704542	1280
75	7347	10.090180704542	1344
75	7968	10.105651151584	1408
75	8201	11.000016819999	1472
79	1966	0.105651151584	1
79	1995	0.106788344789	2
79	2023	0.106841984787	3
79	2052	0.106895624785	4
79	2064	0.106905624785	5
79	2126	0.106959264783	6
79	2147	0.106972904781	7
79	3334	5.090120704542	8
79	3653	5.090230704542	9
79	3688	5.090240704542	10
79	3947	5.09029434454	11
79	4628	5.09046706454	12
79	4660	5.090473784539	13
79	4697	5.090480504538	14
79	4729	5.090487224537	15
79	4754	5.090493944536	16
79	4870	5.090520704542	17
79	5101	5.090610704542	18
79	6610	6.000046819999	19
79	7180	10.090100704542	20
79	7347	10.090180704542	21
79	7968	10.105651151584	22
79	8201	11.000016819999	23
82	4012	5.090304944542	1
82	4027	5.090306424541	2
83	4017	5.090305264542	1
83	4031	5.090306744541	2
86	149	0.087844424168	1
86	6881	10.087844424168	2
88	149	0.087844424168	64
88	6881	10.087844424168	128
98	5949	5.094851143709	1
98	5954	5.094857863708	0
100	258	0.08989012085	1
100	641	0.094633303716	2
100	669	0.094686943714	3
100	698	0.094740583712	4
100	709	0.094750583712	5
100	772	0.09480422371	6
100	838	0.094847863708	7
100	3190	5.090080604542	8
100	3498	5.09016990454	9
100	5942	5.094847863708	10
100	5954	5.094857863708	11
100	6014	5.094917263706	12
100	6426	6.000016719999	13
100	6950	10.08989012085	14
100	7218	10.09011424454	15
100	7245	10.09012424454	16
100	7611	10.09028424454	17
100	7641	10.09029424454	18
101	628	0.094606583717	1
101	656	0.094660223715	2
101	684	0.094713863713	3
101	725	0.094767503711	4
101	737	0.094777503711	5