version 2
run tcp-0-20120510-18:52:31-17287
attr configname tcp
attr datetime 20120510-18:52:31
attr experiment tcp
attr inifile omnetpp.ini
attr iterationvars ""
attr iterationvars2 $repetition=0
attr measurement ""
attr network homenet
attr processid 17287
attr repetition 0
attr replication #0
attr resultdir results
attr runnumber 0
attr seedset 0

vector 156  homenet.kitchen.eth[2].mac  framesSent  ETV
vector 158  homenet.kitchen.eth[2].mac  bytesSent  ETV
vector 185  homenet.office.eth[1].mac  framesReceivedOK  ETV
vector 187  homenet.office.eth[1].mac  bytesReceivedOK  ETV
vector 191  homenet.office.eth[1].mac  framesPassedToHL  ETV
vector 226  homenet.office.eth[4].mac  framesSent  ETV
vector 228  homenet.office.eth[4].mac  bytesSent  ETV
vector 73  homenet.room_C.eth[2].mac  framesReceivedOK  ETV
vector 75  homenet.room_C.eth[2].mac  bytesReceivedOK  ETV
vector 79  homenet.room_C.eth[2].mac  framesPassedToHL  ETV
vector 30  homenet.room_A.eth[2].mac  framesSent  ETV
vector 32  homenet.room_A.eth[2].mac  bytesSent  ETV
vector 353  homenet.living_room.eth[3].mac  framesReceivedOK  ETV
vector 355  homenet.living_room.eth[3].mac  bytesReceivedOK  ETV
vector 359  homenet.living_room.eth[3].mac  framesPassedToHL  ETV
vector 184  homenet.office.eth[1].mac  framesSent  ETV
vector 186  homenet.office.eth[1].mac  bytesSent  ETV
vector 157  homenet.kitchen.eth[2].mac  framesReceivedOK  ETV
vector 159  homenet.kitchen.eth[2].mac  bytesReceivedOK  ETV
vector 163  homenet.kitchen.eth[2].mac  framesPassedToHL  ETV
vector 282  homenet.room_B.eth[3].mac  framesSent  ETV
vector 284  homenet.room_B.eth[3].mac  bytesSent  ETV
vector 339  homenet.living_room.eth[2].mac  framesReceivedOK  ETV
vector 341  homenet.living_room.eth[2].mac  bytesReceivedOK  ETV
vector 345  homenet.living_room.eth[2].mac  framesPassedToHL  ETV
vector 44  homenet.room_C.eth[0].mac  framesSent  ETV
vector 46  homenet.room_C.eth[0].mac  bytesSent  ETV
vector 413  homenet.Host1.eth[0].mac  framesReceivedOK  ETV
vector 415  homenet.Host1.eth[0].mac  bytesReceivedOK  ETV
vector 419  homenet.Host1.eth[0].mac  framesPassedToHL  ETV
vector 2  homenet.room_A.eth[0].mac  framesSent  ETV
vector 4  homenet.room_A.eth[0].mac  bytesSent  ETV
vector 269  homenet.room_B.eth[2].mac  framesReceivedOK  ETV
vector 271  homenet.room_B.eth[2].mac  bytesReceivedOK  ETV
vector 275  homenet.room_B.eth[2].mac  framesPassedToHL  ETV
vector 198  homenet.office.eth[2].mac  framesSent  ETV
vector 200  homenet.office.eth[2].mac  bytesSent  ETV
vector 367  homenet.living_room.eth[4].mac  framesReceivedOK  ETV
vector 369  homenet.living_room.eth[4].mac  bytesReceivedOK  ETV
vector 373  homenet.living_room.eth[4].mac  framesPassedToHL  ETV
vector 240  homenet.room_B.eth[0].mac  framesSent  ETV
vector 242  homenet.room_B.eth[0].mac  bytesSent  ETV
vector 563  homenet.Emitter0.stats.mac[1]  framesReceivedOK  ETV
vector 565  homenet.Emitter0.stats.mac[1]  bytesReceivedOK  ETV
vector 569  homenet.Emitter0.stats.mac[1]  framesPassedToHL  ETV
vector 549  homenet.Emitter0.stats.relayUnit  "buffer level"  ETV
vector 550  homenet.Emitter0.stats.mac[0]  framesSent  ETV
vector 552  homenet.Emitter0.stats.mac[0]  bytesSent  ETV
vector 397  homenet.Host0.eth[0].mac  framesReceivedOK  ETV
vector 399  homenet.Host0.eth[0].mac  bytesReceivedOK  ETV
vector 403  homenet.Host0.eth[0].mac  framesPassedToHL  ETV
vector 86  homenet.garage.eth[0].mac  framesSent  ETV
vector 88  homenet.garage.eth[0].mac  bytesSent  ETV
vector 477  homenet.Host5.eth[0].mac  framesReceivedOK  ETV
vector 479  homenet.Host5.eth[0].mac  bytesReceivedOK  ETV
vector 483  homenet.Host5.eth[0].mac  framesPassedToHL  ETV
vector 72  homenet.room_C.eth[2].mac  framesSent  ETV
vector 74  homenet.room_C.eth[2].mac  bytesSent  ETV
vector 227  homenet.office.eth[4].mac  framesReceivedOK  ETV
vector 229  homenet.office.eth[4].mac  bytesReceivedOK  ETV
vector 233  homenet.office.eth[4].mac  framesPassedToHL  ETV
vector 310  homenet.living_room.eth[0].mac  framesSent  ETV
vector 312  homenet.living_room.eth[0].mac  bytesSent  ETV
vector 461  homenet.Host4.eth[0].mac  framesReceivedOK  ETV
vector 463  homenet.Host4.eth[0].mac  bytesReceivedOK  ETV
vector 467  homenet.Host4.eth[0].mac  framesPassedToHL  ETV
vector 100  homenet.garage.eth[1].mac  framesSent  ETV
vector 102  homenet.garage.eth[1].mac  bytesSent  ETV
vector 297  homenet.room_B.eth[4].mac  framesReceivedOK  ETV
vector 299  homenet.room_B.eth[4].mac  bytesReceivedOK  ETV
vector 303  homenet.room_B.eth[4].mac  framesPassedToHL  ETV
vector 212  homenet.office.eth[3].mac  framesSent  ETV
vector 214  homenet.office.eth[3].mac  bytesSent  ETV
vector 17  homenet.room_A.eth[1].mac  framesReceivedOK  ETV
vector 19  homenet.room_A.eth[1].mac  bytesReceivedOK  ETV
vector 23  homenet.room_A.eth[1].mac  framesPassedToHL  ETV
vector 352  homenet.living_room.eth[3].mac  framesSent  ETV
vector 354  homenet.living_room.eth[3].mac  bytesSent  ETV
vector 31  homenet.room_A.eth[2].mac  framesReceivedOK  ETV
vector 33  homenet.room_A.eth[2].mac  bytesReceivedOK  ETV
vector 37  homenet.room_A.eth[2].mac  framesPassedToHL  ETV
vector 254  homenet.room_B.eth[1].mac  framesSent  ETV
vector 256  homenet.room_B.eth[1].mac  bytesSent  ETV
vector 59  homenet.room_C.eth[1].mac  framesReceivedOK  ETV
vector 61  homenet.room_C.eth[1].mac  bytesReceivedOK  ETV
vector 65  homenet.room_C.eth[1].mac  framesPassedToHL  ETV
vector 324  homenet.living_room.eth[1].mac  framesSent  ETV
vector 326  homenet.living_room.eth[1].mac  bytesSent  ETV
vector 115  homenet.garage.eth[2].mac  framesReceivedOK  ETV
vector 117  homenet.garage.eth[2].mac  bytesReceivedOK  ETV
vector 121  homenet.garage.eth[2].mac  framesPassedToHL  ETV
vector 380  homenet.living_room.eth[5].mac  framesSent  ETV
vector 382  homenet.living_room.eth[5].mac  bytesSent  ETV
vector 143  homenet.kitchen.eth[1].mac  framesReceivedOK  ETV
vector 145  homenet.kitchen.eth[1].mac  bytesReceivedOK  ETV
vector 149  homenet.kitchen.eth[1].mac  framesPassedToHL  ETV
vector 296  homenet.room_B.eth[4].mac  framesSent  ETV
vector 298  homenet.room_B.eth[4].mac  bytesSent  ETV
vector 101  homenet.garage.eth[1].mac  framesReceivedOK  ETV
vector 103  homenet.garage.eth[1].mac  bytesReceivedOK  ETV
vector 107  homenet.garage.eth[1].mac  framesPassedToHL  ETV
vector 170  homenet.office.eth[0].mac  framesSent  ETV
vector 172  homenet.office.eth[0].mac  bytesSent  ETV
vector 429  homenet.Host2.eth[0].mac  framesReceivedOK  ETV
vector 431  homenet.Host2.eth[0].mac  bytesReceivedOK  ETV
vector 435  homenet.Host2.eth[0].mac  framesPassedToHL  ETV
vector 16  homenet.room_A.eth[1].mac  framesSent  ETV
vector 18  homenet.room_A.eth[1].mac  bytesSent  ETV
vector 213  homenet.office.eth[3].mac  framesReceivedOK  ETV
vector 215  homenet.office.eth[3].mac  bytesReceivedOK  ETV
vector 219  homenet.office.eth[3].mac  framesPassedToHL  ETV
vector 366  homenet.living_room.eth[4].mac  framesSent  ETV
vector 368  homenet.living_room.eth[4].mac  bytesSent  ETV
vector 199  homenet.office.eth[2].mac  framesReceivedOK  ETV
vector 201  homenet.office.eth[2].mac  bytesReceivedOK  ETV
vector 205  homenet.office.eth[2].mac  framesPassedToHL  ETV
vector 338  homenet.living_room.eth[2].mac  framesSent  ETV
vector 340  homenet.living_room.eth[2].mac  bytesSent  ETV
vector 283  homenet.room_B.eth[3].mac  framesReceivedOK  ETV
vector 285  homenet.room_B.eth[3].mac  bytesReceivedOK  ETV
vector 289  homenet.room_B.eth[3].mac  framesPassedToHL  ETV
vector 268  homenet.room_B.eth[2].mac  framesSent  ETV
vector 270  homenet.room_B.eth[2].mac  bytesSent  ETV
vector 3  homenet.room_A.eth[0].mac  framesReceivedOK  ETV
vector 5  homenet.room_A.eth[0].mac  bytesReceivedOK  ETV
vector 9  homenet.room_A.eth[0].mac  framesPassedToHL  ETV
vector 128  homenet.kitchen.eth[0].mac  framesSent  ETV
vector 130  homenet.kitchen.eth[0].mac  bytesSent  ETV
vector 506  homenet.Receptor3.stats.mac[0]  framesReceivedOK  ETV
vector 508  homenet.Receptor3.stats.mac[0]  bytesReceivedOK  ETV
vector 512  homenet.Receptor3.stats.mac[0]  framesPassedToHL  ETV
vector 504  homenet.Receptor3.stats.relayUnit  "buffer level"  ETV
vector 517  homenet.Receptor3.stats.mac[1]  framesSent  ETV
vector 519  homenet.Receptor3.stats.mac[1]  bytesSent  ETV
vector 445  homenet.Host3.eth[0].mac  framesReceivedOK  ETV
vector 447  homenet.Host3.eth[0].mac  bytesReceivedOK  ETV
vector 451  homenet.Host3.eth[0].mac  framesPassedToHL  ETV
vector 58  homenet.room_C.eth[1].mac  framesSent  ETV
vector 60  homenet.room_C.eth[1].mac  bytesSent  ETV
vector 255  homenet.room_B.eth[1].mac  framesReceivedOK  ETV
vector 257  homenet.room_B.eth[1].mac  bytesReceivedOK  ETV
vector 261  homenet.room_B.eth[1].mac  framesPassedToHL  ETV
vector 142  homenet.kitchen.eth[1].mac  framesSent  ETV
vector 144  homenet.kitchen.eth[1].mac  bytesSent  ETV
vector 381  homenet.living_room.eth[5].mac  framesReceivedOK  ETV
vector 383  homenet.living_room.eth[5].mac  bytesReceivedOK  ETV
vector 387  homenet.living_room.eth[5].mac  framesPassedToHL  ETV
vector 114  homenet.garage.eth[2].mac  framesSent  ETV
vector 116  homenet.garage.eth[2].mac  bytesSent  ETV
vector 325  homenet.living_room.eth[1].mac  framesReceivedOK  ETV
vector 327  homenet.living_room.eth[1].mac  bytesReceivedOK  ETV
vector 331  homenet.living_room.eth[1].mac  framesPassedToHL  ETV
vector 182  homenet.office.eth[1].queue  "queue length"  ETV
vector 154  homenet.kitchen.eth[2].queue  "queue length"  ETV
vector 70  homenet.room_C.eth[2].queue  "queue length"  ETV
vector 224  homenet.office.eth[4].queue  "queue length"  ETV
vector 350  homenet.living_room.eth[3].queue  "queue length"  ETV
vector 28  homenet.room_A.eth[2].queue  "queue length"  ETV
vector 294  homenet.room_B.eth[4].queue  "queue length"  ETV
vector 98  homenet.garage.eth[1].queue  "queue length"  ETV
vector 14  homenet.room_A.eth[1].queue  "queue length"  ETV
vector 210  homenet.office.eth[3].queue  "queue length"  ETV
vector 615  homenet.Host0.tcp  tcpRcvQueueBytes  ETV
vector 603  homenet.Host0.tcp  "advertised window"  ETV
vector 602  homenet.Host0.tcp  "receive window"  ETV
vector 605  homenet.Host0.tcp  "sent ack"  ETV
vector 396  homenet.Host0.eth[0].mac  framesSent  ETV
vector 398  homenet.Host0.eth[0].mac  bytesSent  ETV
vector 551  homenet.Emitter0.stats.mac[0]  framesReceivedOK  ETV
vector 553  homenet.Emitter0.stats.mac[0]  bytesReceivedOK  ETV
vector 557  homenet.Emitter0.stats.mac[0]  framesPassedToHL  ETV
vector 562  homenet.Emitter0.stats.mac[1]  framesSent  ETV
vector 564  homenet.Emitter0.stats.mac[1]  bytesSent  ETV
vector 241  homenet.room_B.eth[0].mac  framesReceivedOK  ETV
vector 243  homenet.room_B.eth[0].mac  bytesReceivedOK  ETV
vector 247  homenet.room_B.eth[0].mac  framesPassedToHL  ETV
vector 444  homenet.Host3.eth[0].mac  framesSent  ETV
vector 446  homenet.Host3.eth[0].mac  bytesSent  ETV
vector 518  homenet.Receptor3.stats.mac[1]  framesReceivedOK  ETV
vector 520  homenet.Receptor3.stats.mac[1]  bytesReceivedOK  ETV
vector 524  homenet.Receptor3.stats.mac[1]  framesPassedToHL  ETV
vector 505  homenet.Receptor3.stats.mac[0]  framesSent  ETV
vector 507  homenet.Receptor3.stats.mac[0]  bytesSent  ETV
vector 129  homenet.kitchen.eth[0].mac  framesReceivedOK  ETV
vector 131  homenet.kitchen.eth[0].mac  bytesReceivedOK  ETV
vector 135  homenet.kitchen.eth[0].mac  framesPassedToHL  ETV
vector 529  homenet.Receptor3.stats.thruputMeter  "thruput (bit/sec)"  ETV
vector 532  homenet.Receptor3.stats.thruputMeter  jitterVector  ETV
vector 531  homenet.Receptor3.stats.thruputMeter  pkDelayVector  ETV
vector 583  homenet.Host3.tcp  "rcvd seq"  ETV
vector 584  homenet.Host3.tcp  "rcvd ack"  ETV
vector 580  homenet.Host3.tcp  "advertised window"  ETV
vector 578  homenet.Host3.tcp  "send window"  ETV
vector 592  homenet.Host3.tcp  tcpRcvQueueBytes  ETV
vector 579  homenet.Host3.tcp  "receive window"  ETV
vector 582  homenet.Host3.tcp  "sent ack"  ETV
vector 606  homenet.Host0.tcp  "rcvd seq"  ETV
vector 607  homenet.Host0.tcp  "rcvd ack"  ETV
vector 601  homenet.Host0.tcp  "send window"  ETV
vector 585  homenet.Host3.tcp  "unacked bytes"  ETV
vector 604  homenet.Host0.tcp  "sent seq"  ETV
vector 608  homenet.Host0.tcp  "unacked bytes"  ETV
vector 586  homenet.Host3.tcp  "rcvd dupAcks"  ETV
vector 619  homenet.Host0.tcp  "measured RTT"  ETV
vector 620  homenet.Host0.tcp  "smoothed RTT"  ETV
vector 621  homenet.Host0.tcp  RTTVAR  ETV
vector 622  homenet.Host0.tcp  RTO  ETV
vector 617  homenet.Host0.tcp  cwnd  ETV
vector 609  homenet.Host0.tcp  "rcvd dupAcks"  ETV
2	331	0.09027874745	1
2	2138	0.109599454095	2
2	2166	0.109653094093	3
2	2195	0.109706734091	4
2	2206	0.109716734091	5
2	2270	0.109770374089	6
2	3230	5.089297793427	7
2	3361	5.089337793427	8
2	3558	5.089411433425	9
2	3870	5.09834124181	10
2	4038	5.098404881808	11
2	4179	5.099413221364	12
2	4674	5.099536861362	13
2	6106	6.000016719999	14
2	6745	10.089307793427	15
2	6858	10.089347793427	16
2	7102	10.089431433425	17
2	7446	10.09027874745	18
2	7645	10.098354881808	19
2	7827	10.098428521806	20
2	7972	10.099403221364	21
2	8043	10.099436861362	22
2	9016	11.000016719999	23
2	10132	20.09027874745	24
3	2125	0.109572734096	1
3	2153	0.109626374094	2
3	2181	0.109680014092	3
3	2222	0.10973365409	4
3	2234	0.10974365409	5
3	2254	0.10976365409	6
3	2276	0.10977365409	7
3	3512	5.089384713426	8
3	3636	5.089514713426	9
3	3961	5.098378161809	10
3	4044	5.098408161809	11
3	4563	5.099510141363	12
3	4792	5.099560141363	13
3	5121	5.099680141363	14
3	6118	6.000016819999	15
3	6988	10.089394713426	16
3	7208	10.089484713426	17
3	7259	10.089534713426	18
3	7765	10.098401801807	19
3	7834	10.098431801807	20
3	7999	10.099420141363	21
3	8170	10.099480141363	22
3	8259	10.099510141363	23
3	8326	10.099530141363	24
3	8836	10.109572734096	25
3	9028	11.000016819999	26
3	10452	20.109572734096	27
4	331	0.09027874745	64
4	2138	0.109599454095	128
4	2166	0.109653094093	192
4	2195	0.109706734091	256
4	2206	0.109716734091	320
4	2270	0.109770374089	384
4	3230	5.089297793427	448
4	3361	5.089337793427	512
4	3558	5.089411433425	576
4	3870	5.09834124181	640
4	4038	5.098404881808	704
4	4179	5.099413221364	768
4	4674	5.099536861362	832
4	6106	6.000016719999	896
4	6745	10.089307793427	960
4	6858	10.089347793427	1024
4	7102	10.089431433425	1088
4	7446	10.09027874745	1152
4	7645	10.098354881808	1216
4	7827	10.098428521806	1280
4	7972	10.099403221364	1344
4	8043	10.099436861362	1408
4	9016	11.000016719999	1472
4	10132	20.09027874745	1536
5	2125	0.109572734096	64
5	2153	0.109626374094	128
5	2181	0.109680014092	192
5	2222	0.10973365409	256
5	2234	0.10974365409	320
5	2254	0.10976365409	384
5	2276	0.10977365409	448
5	3512	5.089384713426	512
5	3636	5.089514713426	576
5	3961	5.098378161809	640
5	4044	5.098408161809	704
5	4563	5.099510141363	768
5	4792	5.099560141363	832
5	5121	5.099680141363	896
5	6118	6.000016819999	960
5	6988	10.089394713426	1024
5	7208	10.089484713426	1088
5	7259	10.089534713426	1152
5	7765	10.098401801807	1216
5	7834	10.098431801807	1280
5	7999	10.099420141363	1344
5	8170	10.099480141363	1408
5	8259	10.099510141363	1472
5	8326	10.099530141363	1536
5	8836	10.109572734096	1600
5	9028	11.000016819999	1664
5	10452	20.109572734096	1728
9	2125	0.109572734096	1
9	2153	0.109626374094	2
9	2181	0.109680014092	3
9	2222	0.10973365409	4
9	2234	0.10974365409	5
9	2254	0.10976365409	6
9	2276	0.10977365409	7
9	3512	5.089384713426	8
9	3636	5.089514713426	9
9	3961	5.098378161809	10
9	4044	5.098408161809	11
9	4563	5.099510141363	12
9	4792	5.099560141363	13
9	5121	5.099680141363	14
9	6118	6.000016819999	15
9	6988	10.089394713426	16
9	7208	10.089484713426	17
9	7259	10.089534713426	18
9	7765	10.098401801807	19
9	7834	10.098431801807	20
9	7999	10.099420141363	21
9	8170	10.099480141363	22
9	8259	10.099510141363	23
9	8326	10.099530141363	24
9	8836	10.109572734096	25
9	9028	11.000016819999	26
9	10452	20.109572734096	27
14	5867	5.106995624785	1
14	5872	5.107002344784	0
16	1099	0.10676142479	1
16	1127	0.106815064788	2
16	1156	0.106868704786	3
16	1167	0.106878704786	4
16	1233	0.106932344784	5
16	1255	0.106942344784	6
16	1360	0.107002344784	7
16	1923	0.108844410371	8
16	2070	0.10890123037	9
16	3400	5.089347793427	10
16	4201	5.099423221364	11
16	4728	5.099546861362	12
16	4825	5.099566861362	13
16	5238	5.099706861362	14
16	5417	5.099766861362	15
16	5617	5.099846861362	16
16	5860	5.106992344784	17
16	5872	5.107002344784	18
16	5888	5.107009064783	19
16	6183	6.000026719999	20
16	6890	10.089357793427	21
16	7301	10.089561433425	22
16	7398	10.089625073423	23
16	8385	10.099556861362	24
16	8534	10.09962050136	25
16	8738	10.10676142479	26
16	9093	11.000026719999	27
16	10391	20.10676142479	28
17	658	0.099096241008	1
17	1114	0.106788344789	2
17	1142	0.106841984787	3
17	1183	0.106895624785	4
17	1195	0.106905624785	5
17	1217	0.106925624785	6
17	1239	0.106935624785	7
17	1261	0.106945624785	8
17	1393	0.107015624785	9
17	1996	0.108864510371	10
17	2094	0.108924510371	11
17	3144	5.089271073428	12
17	3795	5.098314521811	13
17	4456	5.099480141363	14
17	4954	5.099600141363	15
17	5205	5.099700141363	16
17	5283	5.099720141363	17
17	5550	5.099820141363	18
17	5625	5.099850141363	19
17	5849	5.106975624785	20
17	5895	5.107009264783	21
17	5903	5.107015984782	22
17	6248	6.000036819999	23
17	6667	10.089281073428	24
17	7358	10.089598353424	25
17	7389	10.089618353424	26
17	7597	10.098328161809	27
17	7908	10.099096241008	28
17	8171	10.099480141363	29
17	8453	10.099593781361	30
17	8509	10.099613781361	31
17	10249	20.099096241008	32
18	1099	0.10676142479	64
18	1127	0.106815064788	128
18	1156	0.106868704786	192
18	1167	0.106878704786	256
18	1233	0.106932344784	320
18	1255	0.106942344784	384
18	1360	0.107002344784	448
18	1923	0.108844410371	512
18	2070	0.10890123037	576
18	3400	5.089347793427	640
18	4201	5.099423221364	704
18	4728	5.099546861362	768
18	4825	5.099566861362	832
18	5238	5.099706861362	896
18	5417	5.099766861362	960
18	5617	5.099846861362	1024
18	5860	5.106992344784	1088
18	5872	5.107002344784	1152
18	5888	5.107009064783	1216
18	6183	6.000026719999	1280
18	6890	10.089357793427	1344
18	7301	10.089561433425	1408
18	7398	10.089625073423	1472
18	8385	10.099556861362	1536
18	8534	10.09962050136	1600
18	8738	10.10676142479	1664
18	9093	11.000026719999	1728
18	10391	20.10676142479	1792
19	658	0.099096241008	64
19	1114	0.106788344789	128
19	1142	0.106841984787	192
19	1183	0.106895624785	256
19	1195	0.106905624785	320
19	1217	0.106925624785	384
19	1239	0.106935624785	448
19	1261	0.106945624785	512
19	1393	0.107015624785	576
19	1996	0.108864510371	640
19	2094	0.108924510371	704
19	3144	5.089271073428	768
19	3795	5.098314521811	832
19	4456	5.099480141363	896
19	4954	5.099600141363	960
19	5205	5.099700141363	1024
19	5283	5.099720141363	1088
19	5550	5.099820141363	1152
19	5625	5.099850141363	1216
19	5849	5.106975624785	1280
19	5895	5.107009264783	1344
19	5903	5.107015984782	1408
19	6248	6.000036819999	1472
19	6667	10.089281073428	1536
19	7358	10.089598353424	1600
19	7389	10.089618353424	1664
19	7597	10.098328161809	1728
19	7908	10.099096241008	1792
19	8171	10.099480141363	1856
19	8453	10.099593781361	1920
19	8509	10.099613781361	1984
19	10249	20.099096241008	2048
23	658	0.099096241008	1
23	1114	0.106788344789	2
23	1142	0.106841984787	3
23	1183	0.106895624785	4
23	1195	0.106905624785	5
23	1217	0.106925624785	6
23	1239	0.106935624785	7
23	1261	0.106945624785	8
23	1393	0.107015624785	9
23	1996	0.108864510371	10
23	2094	0.108924510371	11
23	3144	5.089271073428	12
23	3795	5.098314521811	13
23	4456	5.099480141363	14
23	4954	5.099600141363	15
23	5205	5.099700141363	16
23	5283	5.099720141363	17
23	5550	5.099820141363	18
23	5625	5.099850141363	19
23	5849	5.106975624785	20
23	5895	5.107009264783	21
23	5903	5.107015984782	22
23	6248	6.000036819999	23
23	6667	10.089281073428	24
23	7358	10.089598353424	25
23	7389	10.089618353424	26
23	7597	10.098328161809	27
23	7908	10.099096241008	28
23	8171	10.099480141363	29
23	8453	10.099593781361	30
23	8509	10.099613781361	31
23	10249	20.099096241008	32
28	4122	5.099376501365	1
28	4131	5.099383221364	0
30	102	0.087844424168	1
30	686	0.099168661372	2
30	714	0.09922230137	3
30	743	0.099275941368	4
30	754	0.099285941368	5
30	810	0.099339581366	6
30	827	0.099359581366	7
30	1294	0.106972344784	8
30	1336	0.106992344784	9
30	1386	0.107012344784	10
30	1410	0.107022344784	11
30	3270	5.089307793427	12
30	3462	5.089367793427	13
30	3897	5.09835124181	14
30	3960	5.098378061809	15
30	4091	5.099359581366	16
30	4131	5.099383221364	17
30	4148	5.099389941363	18
30	4231	5.099433221364	19
30	4280	5.099443221364	20
30	4778	5.099556861362	21
30	4877	5.099576861362	22
30	5274	5.099716861362	23
30	5366	5.099746861362	24
30	5516	5.099806861362	25
30	6243	6.000036719999	26
30	6509	10.087844424168	27
30	6781	10.089317793427	28
30	7143	10.089441433425	29
30	7317	10.089571433425	30
30	7670	10.098364881808	31
30	7734	10.098391701807	32
30	7937	10.099359581366	33
30	7961	10.099393221364	34
30	8401	10.099566861362	35
30	9151	11.000036719999	36
30	10071	20.087844424168	37
31	673	0.099141941373	1
31	701	0.099195581371	2
31	729	0.099249221369	3
31	770	0.099302861367	4
31	782	0.099312861367	5
31	801	0.099332861367	6
31	839	0.099366501365	7
31	1851	0.108817690372	8
31	1933	0.108847690372	9
31	2005	0.108867690372	10
31	3285	5.089311073428	11
31	3375	5.089341073428	12
31	3443	5.089361073428	13
31	3900	5.09835134181	14
31	4026	5.09840134181	15
31	4103	5.099366501365	16
31	4118	5.099376501365	17
31	4132	5.099383221364	18
31	4354	5.099460141363	19
31	4597	5.099520141363	20
31	5159	5.099690141363	21
31	5339	5.099740141363	22
31	5441	5.099780141363	23
31	5523	5.099810141363	24
31	5729	5.099970141363	25
31	6250	6.000036819999	26
31	6796	10.089321073428	27
31	7008	10.089401073428	28
31	7136	10.089441073428	29
31	7673	10.098364981808	30
31	7800	10.098414981808	31
31	7923	10.099141941373	32
31	7949	10.099376501365	33
31	9029	11.000016819999	34
31	10264	20.099141941373	35
32	102	0.087844424168	64
32	686	0.099168661372	128
32	714	0.09922230137	192
32	743	0.099275941368	256
32	754	0.099285941368	320
32	810	0.099339581366	384
32	827	0.099359581366	448
32	1294	0.106972344784	512
32	1336	0.106992344784	576
32	1386	0.107012344784	640
32	1410	0.107022344784	704
32	3270	5.089307793427	768
32	3462	5.089367793427	832
32	3897	5.09835124181	896
32	3960	5.098378061809	960
32	4091	5.099359581366	1024
32	4131	5.099383221364	1088
32	4148	5.099389941363	1152
32	4231	5.099433221364	1216
32	4280	5.099443221364	1280
32	4778	5.099556861362	1344
32	4877	5.099576861362	1408
32	5274	5.099716861362	1472
32	5366	5.099746861362	1536
32	5516	5.099806861362	1600
32	6243	6.000036719999	1664
32	6509	10.087844424168	1728
32	6781	10.089317793427	1792
32	7143	10.089441433425	1856
32	7317	10.089571433425	1920
32	7670	10.098364881808	1984
32	7734	10.098391701807	2048
32	7937	10.099359581366	2112
32	7961	10.099393221364	2176
32	8401	10.099566861362	2240
32	9151	11.000036719999	2304
32	10071	20.087844424168	2368
33	673	0.099141941373	64
33	701	0.099195581371	128
33	729	0.099249221369	192
33	770	0.099302861367	256
33	782	0.099312861367	320
33	801	0.099332861367	384
33	839	0.099366501365	448
33	1851	0.108817690372	512
33	1933	0.108847690372	576
33	2005	0.108867690372	640
33	3285	5.089311073428	704
33	3375	5.089341073428	768
33	3443	5.089361073428	832
33	3900	5.09835134181	896
33	4026	5.09840134181	960
33	4103	5.099366501365	1024
33	4118	5.099376501365	1088
33	4132	5.099383221364	1152
33	4354	5.099460141363	1216
33	4597	5.099520141363	1280
33	5159	5.099690141363	1344
33	5339	5.099740141363	1408
33	5441	5.099780141363	1472
33	5523	5.099810141363	1536
33	5729	5.099970141363	1600
33	6250	6.000036819999	1664
33	6796	10.089321073428	1728
33	7008	10.089401073428	1792
33	7136	10.089441073428	1856
33	7673	10.098364981808	1920
33	7800	10.098414981808	1984
33	7923	10.099141941373	2048
33	7949	10.099376501365	2112
33	9029	11.000016819999	2176
33	10264	20.099141941373	2240
37	673	0.099141941373	1
37	701	0.099195581371	2
37	729	0.099249221369	3
37	770	0.099302861367	4
37	782	0.099312861367	5
37	801	0.099332861367	6
37	839	0.099366501365	7
37	1851	0.108817690372	8
37	1933	0.108847690372	9
37	2005	0.108867690372	10
37	3285	5.089311073428	11
37	3375	5.089341073428	12
37	3443	5.089361073428	13
37	3900	5.09835134181	14
37	4026	5.09840134181	15
37	4103	5.099366501365	16
37	4118	5.099376501365	17
37	4132	5.099383221364	18
37	4354	5.099460141363	19
37	4597	5.099520141363	20
37	5159	5.099690141363	21
37	5339	5.099740141363	22
37	5441	5.099780141363	23
37	5523	5.099810141363	24
37	5729	5.099970141363	25
37	6250	6.000036819999	26
37	6796	10.089321073428	27
37	7008	10.089401073428	28
37	7136	10.089441073428	29
37	7673	10.098364981808	30
37	7800	10.098414981808	31
37	7923	10.099141941373	32
37	7949	10.099376501365	33
37	9029	11.000016819999	34
37	10264	20.099141941373	35
44	316	0.08989012085	1
44	7431	10.08989012085	2
44	10117	20.08989012085	3
46	316	0.08989012085	64
46	7431	10.08989012085	128
46	10117	20.08989012085	192
58	2321	0.111753480163	1
58	2349	0.111807120161	2
58	2378	0.111860760159	3
58	2389	0.111870760159	4
58	2455	0.111924400157	5
58	2477	0.111934400157	6
58	3271	5.089307793427	7
58	3450	5.089361433425	8
58	4631	5.099526861362	9
58	6107	6.000016719999	10
58	6782	10.089317793427	11
58	6927	10.089371433425	12
58	8108	10.099456861362	13
58	8320	10.099526861362	14
58	8878	10.111753480163	15
58	9017	11.000016719999	16
58	9350	15.099526861362	17
58	9372	15.09956050136	18
58	10278	20.099526861362	19
58	10300	20.09956050136	20
58	10494	20.111753480163	21
59	856	0.101318637488	1
59	2336	0.111780400162	2
59	2364	0.11183404016	3
59	2405	0.111887680158	4
59	2417	0.111897680158	5
59	2439	0.111917680158	6
59	2461	0.111927680158	7
59	2483	0.111937680158	8
59	3356	5.089334713426	9
59	3482	5.089374713426	10
59	3589	5.089444713426	11
59	4269	5.099440141363	12
59	4526	5.099500141363	13
59	4687	5.099540141363	14
59	4742	5.099550141363	15
59	5092	5.099670141363	16
59	6855	10.089344713426	17
59	6958	10.089384713426	18
59	7117	10.089434713426	19
59	7247	10.089524713426	20
59	7735	10.098391801807	21
59	8051	10.099440141363	22
59	8136	10.099470141363	23
59	8300	10.099520141363	24
59	8626	10.101318637488	25
59	9362	15.099543781361	26
59	10290	20.099543781361	27
59	10316	20.101318637488	28
60	2321	0.111753480163	64
60	2349	0.111807120161	128
60	2378	0.111860760159	192
60	2389	0.111870760159	256
60	2455	0.111924400157	320
60	2477	0.111934400157	384
60	3271	5.089307793427	448
60	3450	5.089361433425	512
60	4631	5.099526861362	576
60	6107	6.000016719999	640
60	6782	10.089317793427	704
60	6927	10.089371433425	768
60	8108	10.099456861362	832
60	8320	10.099526861362	896
60	8878	10.111753480163	960
60	9017	11.000016719999	1024
60	9350	15.099526861362	1088
60	9372	15.09956050136	1152
60	10278	20.099526861362	1216
60	10300	20.09956050136	1280
60	10494	20.111753480163	1344
61	856	0.101318637488	64
61	2336	0.111780400162	128
61	2364	0.11183404016	192
61	2405	0.111887680158	256
61	2417	0.111897680158	320
61	2439	0.111917680158	384
61	2461	0.111927680158	448
61	2483	0.111937680158	512
61	3356	5.089334713426	576
61	3482	5.089374713426	640
61	3589	5.089444713426	704
61	4269	5.099440141363	768
61	4526	5.099500141363	832
61	4687	5.099540141363	896
61	4742	5.099550141363	960
61	5092	5.099670141363	1024
61	6855	10.089344713426	1088
61	6958	10.089384713426	1152
61	7117	10.089434713426	1216
61	7247	10.089524713426	1280
61	7735	10.098391801807	1344
61	8051	10.099440141363	1408
61	8136	10.099470141363	1472
61	8300	10.099520141363	1536
61	8626	10.101318637488	1600
61	9362	15.099543781361	1664
61	10290	20.099543781361	1728
61	10316	20.101318637488	1792
65	856	0.101318637488	1
65	2336	0.111780400162	2
65	2364	0.11183404016	3
65	2405	0.111887680158	4
65	2417	0.111897680158	5
65	2439	0.111917680158	6
65	2461	0.111927680158	7
65	2483	0.111937680158	8
65	3356	5.089334713426	9
65	3482	5.089374713426	10
65	3589	5.089444713426	11
65	4269	5.099440141363	12
65	4526	5.099500141363	13
65	4687	5.099540141363	14
65	4742	5.099550141363	15
65	5092	5.099670141363	16
65	6855	10.089344713426	17
65	6958	10.089384713426	18
65	7117	10.089434713426	19
65	7247	10.089524713426	20
65	7735	10.098391801807	21
65	8051	10.099440141363	22
65	8136	10.099470141363	23
65	8300	10.099520141363	24
65	8626	10.101318637488	25
65	9362	15.099543781361	26
65	10290	20.099543781361	27
65	10316	20.101318637488	28
70	3685	5.098250881813	1
70	3690	5.098257601812	0
72	401	0.09801304182	1
72	429	0.098066681818	2
72	457	0.098120321816	3
72	498	0.098173961814	4
72	509	0.098183961814	5
72	529	0.098203961814	6
72	590	0.098247601812	7
72	3541	5.089401433425	8
72	3678	5.098247601812	9
72	3690	5.098257601812	10
72	3706	5.098264321811	11
72	3762	5.09830124181	12
72	3787	5.09831124181	13
72	3817	5.09832124181	14
72	3845	5.09833124181	15
72	4405	5.099466861362	16
72	4673	5.099536861362	17
72	4727	5.099546861362	18
72	4876	5.099576861362	19
72	4946	5.099596861362	20
72	5057	5.099636861362	21
72	5195	5.099696861362	22
72	6184	6.000026719999	23
72	7052	10.089411433425	24
72	7288	10.089551433425	25
72	7516	10.09801304182	26
72	7531	10.098247601812	27
72	7553	10.09828124181	28
72	8224	10.099496861362	29
72	8289	10.099516861362	30
72	8368	10.099546861362	31
72	9094	11.000026719999	32
72	10202	20.09801304182	33
73	88	0.087580265193	1
73	416	0.098039961819	2
73	444	0.098093601817	3
73	473	0.098147241815	4
73	485	0.098157241815	5
73	541	0.098210881813	6
73	553	0.098220881813	7
73	609	0.098260881813	8
73	1319	0.106985624785	9
73	1418	0.107025624785	10
73	1433	0.107035624785	11
73	2032	0.108874510371	12
73	2107	0.108934510371	13
73	3172	5.089281073428	14
73	3669	5.098240881813	15
73	3713	5.098264521811	16
73	3724	5.09827124181	17
73	4492	5.099490141363	18
73	4564	5.099510141363	19
73	4793	5.099560141363	20
73	4984	5.099610141363	21
73	5375	5.099750141363	22
73	6280	6.000046819999	23
73	6495	10.087580265193	24
73	6690	10.089291073428	25
73	7543	10.098264521811	26
73	8089	10.099450141363	27
73	8200	10.099490141363	28
73	8350	10.099540141363	29
73	9156	11.000036819999	30
73	10057	20.087580265193	31