version 2
run udp_streaming-0-20120510-19:05:24-17866
attr configname udp_streaming
attr datetime 20120510-19:05:24
attr experiment udp_streaming
attr inifile omnetpp.ini
attr iterationvars ""
attr iterationvars2 $repetition=0
attr measurement ""
attr network homenet
attr processid 17866
attr repetition 0
attr replication #0
attr resultdir results
attr runnumber 0
attr seedset 0

vector 156  homenet.kitchen.eth[2].mac  framesSent  ETV
vector 158  homenet.kitchen.eth[2].mac  bytesSent  ETV
vector 185  homenet.office.eth[1].mac  framesReceivedOK  ETV
vector 187  homenet.office.eth[1].mac  bytesReceivedOK  ETV
vector 191  homenet.office.eth[1].mac  framesPassedToHL  ETV
vector 226  homenet.office.eth[4].mac  framesSent  ETV
vector 228  homenet.office.eth[4].mac  bytesSent  ETV
vector 73  homenet.room_C.eth[2].mac  framesReceivedOK  ETV
vector 75  homenet.room_C.eth[2].mac  bytesReceivedOK  ETV
vector 79  homenet.room_C.eth[2].mac  framesPassedToHL  ETV
vector 30  homenet.room_A.eth[2].mac  framesSent  ETV
vector 32  homenet.room_A.eth[2].mac  bytesSent  ETV
vector 353  homenet.living_room.eth[3].mac  framesReceivedOK  ETV
vector 355  homenet.living_room.eth[3].mac  bytesReceivedOK  ETV
vector 359  homenet.living_room.eth[3].mac  framesPassedToHL  ETV
vector 184  homenet.office.eth[1].mac  framesSent  ETV
vector 186  homenet.office.eth[1].mac  bytesSent  ETV
vector 157  homenet.kitchen.eth[2].mac  framesReceivedOK  ETV
vector 159  homenet.kitchen.eth[2].mac  bytesReceivedOK  ETV
vector 163  homenet.kitchen.eth[2].mac  framesPassedToHL  ETV
vector 282  homenet.room_B.eth[3].mac  framesSent  ETV
vector 284  homenet.room_B.eth[3].mac  bytesSent  ETV
vector 339  homenet.living_room.eth[2].mac  framesReceivedOK  ETV
vector 341  homenet.living_room.eth[2].mac  bytesReceivedOK  ETV
vector 345  homenet.living_room.eth[2].mac  framesPassedToHL  ETV
vector 44  homenet.room_C.eth[0].mac  framesSent  ETV
vector 46  homenet.room_C.eth[0].mac  bytesSent  ETV
vector 413  homenet.Host1.eth[0].mac  framesReceivedOK  ETV
vector 415  homenet.Host1.eth[0].mac  bytesReceivedOK  ETV
vector 419  homenet.Host1.eth[0].mac  framesPassedToHL  ETV
vector 2  homenet.room_A.eth[0].mac  framesSent  ETV
vector 4  homenet.room_A.eth[0].mac  bytesSent  ETV
vector 269  homenet.room_B.eth[2].mac  framesReceivedOK  ETV
vector 271  homenet.room_B.eth[2].mac  bytesReceivedOK  ETV
vector 275  homenet.room_B.eth[2].mac  framesPassedToHL  ETV
vector 198  homenet.office.eth[2].mac  framesSent  ETV
vector 200  homenet.office.eth[2].mac  bytesSent  ETV
vector 367  homenet.living_room.eth[4].mac  framesReceivedOK  ETV
vector 369  homenet.living_room.eth[4].mac  bytesReceivedOK  ETV
vector 373  homenet.living_room.eth[4].mac  framesPassedToHL  ETV
vector 240  homenet.room_B.eth[0].mac  framesSent  ETV
vector 242  homenet.room_B.eth[0].mac  bytesSent  ETV
vector 564  homenet.Emitter0.stats.mac[1]  framesReceivedOK  ETV
vector 566  homenet.Emitter0.stats.mac[1]  bytesReceivedOK  ETV
vector 570  homenet.Emitter0.stats.mac[1]  framesPassedToHL  ETV
vector 550  homenet.Emitter0.stats.relayUnit  "buffer level"  ETV
vector 551  homenet.Emitter0.stats.mac[0]  framesSent  ETV
vector 553  homenet.Emitter0.stats.mac[0]  bytesSent  ETV
vector 397  homenet.Host0.eth[0].mac  framesReceivedOK  ETV
vector 399  homenet.Host0.eth[0].mac  bytesReceivedOK  ETV
vector 403  homenet.Host0.eth[0].mac  framesPassedToHL  ETV
vector 86  homenet.garage.eth[0].mac  framesSent  ETV
vector 88  homenet.garage.eth[0].mac  bytesSent  ETV
vector 478  homenet.Host5.eth[0].mac  framesReceivedOK  ETV
vector 480  homenet.Host5.eth[0].mac  bytesReceivedOK  ETV
vector 484  homenet.Host5.eth[0].mac  framesPassedToHL  ETV
vector 72  homenet.room_C.eth[2].mac  framesSent  ETV
vector 74  homenet.room_C.eth[2].mac  bytesSent  ETV
vector 227  homenet.office.eth[4].mac  framesReceivedOK  ETV
vector 229  homenet.office.eth[4].mac  bytesReceivedOK  ETV
vector 233  homenet.office.eth[4].mac  framesPassedToHL  ETV
vector 310  homenet.living_room.eth[0].mac  framesSent  ETV
vector 312  homenet.living_room.eth[0].mac  bytesSent  ETV
vector 462  homenet.Host4.eth[0].mac  framesReceivedOK  ETV
vector 464  homenet.Host4.eth[0].mac  bytesReceivedOK  ETV
vector 468  homenet.Host4.eth[0].mac  framesPassedToHL  ETV
vector 100  homenet.garage.eth[1].mac  framesSent  ETV
vector 102  homenet.garage.eth[1].mac  bytesSent  ETV
vector 297  homenet.room_B.eth[4].mac  framesReceivedOK  ETV
vector 299  homenet.room_B.eth[4].mac  bytesReceivedOK  ETV
vector 303  homenet.room_B.eth[4].mac  framesPassedToHL  ETV
vector 212  homenet.office.eth[3].mac  framesSent  ETV
vector 214  homenet.office.eth[3].mac  bytesSent  ETV
vector 17  homenet.room_A.eth[1].mac  framesReceivedOK  ETV
vector 19  homenet.room_A.eth[1].mac  bytesReceivedOK  ETV
vector 23  homenet.room_A.eth[1].mac  framesPassedToHL  ETV
vector 352  homenet.living_room.eth[3].mac  framesSent  ETV
vector 354  homenet.living_room.eth[3].mac  bytesSent  ETV
vector 31  homenet.room_A.eth[2].mac  framesReceivedOK  ETV
vector 33  homenet.room_A.eth[2].mac  bytesReceivedOK  ETV
vector 37  homenet.room_A.eth[2].mac  framesPassedToHL  ETV
vector 254  homenet.room_B.eth[1].mac  framesSent  ETV
vector 256  homenet.room_B.eth[1].mac  bytesSent  ETV
vector 59  homenet.room_C.eth[1].mac  framesReceivedOK  ETV
vector 61  homenet.room_C.eth[1].mac  bytesReceivedOK  ETV
vector 65  homenet.room_C.eth[1].mac  framesPassedToHL  ETV
vector 324  homenet.living_room.eth[1].mac  framesSent  ETV
vector 326  homenet.living_room.eth[1].mac  bytesSent  ETV
vector 115  homenet.garage.eth[2].mac  framesReceivedOK  ETV
vector 117  homenet.garage.eth[2].mac  bytesReceivedOK  ETV
vector 121  homenet.garage.eth[2].mac  framesPassedToHL  ETV
vector 380  homenet.living_room.eth[5].mac  framesSent  ETV
vector 382  homenet.living_room.eth[5].mac  bytesSent  ETV
vector 143  homenet.kitchen.eth[1].mac  framesReceivedOK  ETV
vector 145  homenet.kitchen.eth[1].mac  bytesReceivedOK  ETV
vector 149  homenet.kitchen.eth[1].mac  framesPassedToHL  ETV
vector 296  homenet.room_B.eth[4].mac  framesSent  ETV
vector 298  homenet.room_B.eth[4].mac  bytesSent  ETV
vector 101  homenet.garage.eth[1].mac  framesReceivedOK  ETV
vector 103  homenet.garage.eth[1].mac  bytesReceivedOK  ETV
vector 107  homenet.garage.eth[1].mac  framesPassedToHL  ETV
vector 170  homenet.office.eth[0].mac  framesSent  ETV
vector 172  homenet.office.eth[0].mac  bytesSent  ETV
vector 429  homenet.Host2.eth[0].mac  framesReceivedOK  ETV
vector 431  homenet.Host2.eth[0].mac  bytesReceivedOK  ETV
vector 435  homenet.Host2.eth[0].mac  framesPassedToHL  ETV
vector 16  homenet.room_A.eth[1].mac  framesSent  ETV
vector 18  homenet.room_A.eth[1].mac  bytesSent  ETV
vector 213  homenet.office.eth[3].mac  framesReceivedOK  ETV
vector 215  homenet.office.eth[3].mac  bytesReceivedOK  ETV
vector 219  homenet.office.eth[3].mac  framesPassedToHL  ETV
vector 366  homenet.living_room.eth[4].mac  framesSent  ETV
vector 368  homenet.living_room.eth[4].mac  bytesSent  ETV
vector 199  homenet.office.eth[2].mac  framesReceivedOK  ETV
vector 201  homenet.office.eth[2].mac  bytesReceivedOK  ETV
vector 205  homenet.office.eth[2].mac  framesPassedToHL  ETV
vector 338  homenet.living_room.eth[2].mac  framesSent  ETV
vector 340  homenet.living_room.eth[2].mac  bytesSent  ETV
vector 283  homenet.room_B.eth[3].mac  framesReceivedOK  ETV
vector 285  homenet.room_B.eth[3].mac  bytesReceivedOK  ETV
vector 289  homenet.room_B.eth[3].mac  framesPassedToHL  ETV
vector 268  homenet.room_B.eth[2].mac  framesSent  ETV
vector 270  homenet.room_B.eth[2].mac  bytesSent  ETV
vector 3  homenet.room_A.eth[0].mac  framesReceivedOK  ETV
vector 5  homenet.room_A.eth[0].mac  bytesReceivedOK  ETV
vector 9  homenet.room_A.eth[0].mac  framesPassedToHL  ETV
vector 128  homenet.kitchen.eth[0].mac  framesSent  ETV
vector 130  homenet.kitchen.eth[0].mac  bytesSent  ETV
vector 507  homenet.Receptor3.stats.mac[0]  framesReceivedOK  ETV
vector 509  homenet.Receptor3.stats.mac[0]  bytesReceivedOK  ETV
vector 513  homenet.Receptor3.stats.mac[0]  framesPassedToHL  ETV
vector 505  homenet.Receptor3.stats.relayUnit  "buffer level"  ETV
vector 518  homenet.Receptor3.stats.mac[1]  framesSent  ETV
vector 520  homenet.Receptor3.stats.mac[1]  bytesSent  ETV
vector 446  homenet.Host3.eth[0].mac  framesReceivedOK  ETV
vector 448  homenet.Host3.eth[0].mac  bytesReceivedOK  ETV
vector 452  homenet.Host3.eth[0].mac  framesPassedToHL  ETV
vector 58  homenet.room_C.eth[1].mac  framesSent  ETV
vector 60  homenet.room_C.eth[1].mac  bytesSent  ETV
vector 255  homenet.room_B.eth[1].mac  framesReceivedOK  ETV
vector 257  homenet.room_B.eth[1].mac  bytesReceivedOK  ETV
vector 261  homenet.room_B.eth[1].mac  framesPassedToHL  ETV
vector 142  homenet.kitchen.eth[1].mac  framesSent  ETV
vector 144  homenet.kitchen.eth[1].mac  bytesSent  ETV
vector 381  homenet.living_room.eth[5].mac  framesReceivedOK  ETV
vector 383  homenet.living_room.eth[5].mac  bytesReceivedOK  ETV
vector 387  homenet.living_room.eth[5].mac  framesPassedToHL  ETV
vector 114  homenet.garage.eth[2].mac  framesSent  ETV
vector 116  homenet.garage.eth[2].mac  bytesSent  ETV
vector 325  homenet.living_room.eth[1].mac  framesReceivedOK  ETV
vector 327  homenet.living_room.eth[1].mac  bytesReceivedOK  ETV
vector 331  homenet.living_room.eth[1].mac  framesPassedToHL  ETV
vector 182  homenet.office.eth[1].queue  "queue length"  ETV
vector 154  homenet.kitchen.eth[2].queue  "queue length"  ETV
vector 70  homenet.room_C.eth[2].queue  "queue length"  ETV
vector 224  homenet.office.eth[4].queue  "queue length"  ETV
vector 350  homenet.living_room.eth[3].queue  "queue length"  ETV
vector 28  homenet.room_A.eth[2].queue  "queue length"  ETV
vector 294  homenet.room_B.eth[4].queue  "queue length"  ETV
vector 98  homenet.garage.eth[1].queue  "queue length"  ETV
vector 14  homenet.room_A.eth[1].queue  "queue length"  ETV
vector 210  homenet.office.eth[3].queue  "queue length"  ETV
vector 445  homenet.Host3.eth[0].mac  framesSent  ETV
vector 447  homenet.Host3.eth[0].mac  bytesSent  ETV
vector 519  homenet.Receptor3.stats.mac[1]  framesReceivedOK  ETV
vector 521  homenet.Receptor3.stats.mac[1]  bytesReceivedOK  ETV
vector 525  homenet.Receptor3.stats.mac[1]  framesPassedToHL  ETV
vector 506  homenet.Receptor3.stats.mac[0]  framesSent  ETV
vector 508  homenet.Receptor3.stats.mac[0]  bytesSent  ETV
vector 129  homenet.kitchen.eth[0].mac  framesReceivedOK  ETV
vector 131  homenet.kitchen.eth[0].mac  bytesReceivedOK  ETV
vector 135  homenet.kitchen.eth[0].mac  framesPassedToHL  ETV
vector 396  homenet.Host0.eth[0].mac  framesSent  ETV
vector 398  homenet.Host0.eth[0].mac  bytesSent  ETV
vector 552  homenet.Emitter0.stats.mac[0]  framesReceivedOK  ETV
vector 554  homenet.Emitter0.stats.mac[0]  bytesReceivedOK  ETV
vector 558  homenet.Emitter0.stats.mac[0]  framesPassedToHL  ETV
vector 563  homenet.Emitter0.stats.mac[1]  framesSent  ETV
vector 565  homenet.Emitter0.stats.mac[1]  bytesSent  ETV
vector 241  homenet.room_B.eth[0].mac  framesReceivedOK  ETV
vector 243  homenet.room_B.eth[0].mac  bytesReceivedOK  ETV
vector 247  homenet.room_B.eth[0].mac  framesPassedToHL  ETV
vector 530  homenet.Receptor3.stats.thruputMeter  "thruput (bit/sec)"  ETV
vector 531  homenet.Receptor3.stats.thruputMeter  packet/sec  ETV
vector 533  homenet.Receptor3.stats.thruputMeter  jitterVector  ETV
vector 532  homenet.Receptor3.stats.thruputMeter  pkDelayVector  ETV
vector 440  homenet.Host3.udpApp[0]  "video stream eed"  ETV
2	330	0.09027874745	1
2	2137	0.109599454095	2
2	2165	0.109653094093	3
2	2194	0.109706734091	4
2	2205	0.109716734091	5
2	2269	0.109770374089	6
2	3229	5.089297793427	7
2	3360	5.089337793427	8
2	3557	5.089411433425	9
2	3869	5.09834124181	10
2	4037	5.098404881808	11
2	4178	5.099413221364	12
2	4673	5.099536861362	13
2	6105	6.000016719999	14
2	6744	10.089307793427	15
2	6857	10.089347793427	16
2	7101	10.089431433425	17
2	7445	10.09027874745	18
2	7644	10.098354881808	19
2	7826	10.098428521806	20
2	7971	10.099403221364	21
2	8042	10.099436861362	22
2	9015	11.000016719999	23
3	2124	0.109572734096	1
3	2152	0.109626374094	2
3	2180	0.109680014092	3
3	2221	0.10973365409	4
3	2233	0.10974365409	5
3	2253	0.10976365409	6
3	2275	0.10977365409	7
3	3511	5.089384713426	8
3	3635	5.089514713426	9
3	3960	5.098378161809	10
3	4043	5.098408161809	11
3	4562	5.099510141363	12
3	4791	5.099560141363	13
3	5120	5.099680141363	14
3	6117	6.000016819999	15
3	6987	10.089394713426	16
3	7207	10.089484713426	17
3	7258	10.089534713426	18
3	7764	10.098401801807	19
3	7833	10.098431801807	20
3	7998	10.099420141363	21
3	8169	10.099480141363	22
3	8258	10.099510141363	23
3	8325	10.099530141363	24
3	8835	10.109572734096	25
3	9027	11.000016819999	26
4	330	0.09027874745	64
4	2137	0.109599454095	128
4	2165	0.109653094093	192
4	2194	0.109706734091	256
4	2205	0.109716734091	320
4	2269	0.109770374089	384
4	3229	5.089297793427	448
4	3360	5.089337793427	512
4	3557	5.089411433425	576
4	3869	5.09834124181	640
4	4037	5.098404881808	704
4	4178	5.099413221364	768
4	4673	5.099536861362	832
4	6105	6.000016719999	896
4	6744	10.089307793427	960
4	6857	10.089347793427	1024
4	7101	10.089431433425	1088
4	7445	10.09027874745	1152
4	7644	10.098354881808	1216
4	7826	10.098428521806	1280
4	7971	10.099403221364	1344
4	8042	10.099436861362	1408
4	9015	11.000016719999	1472
5	2124	0.109572734096	64
5	2152	0.109626374094	128
5	2180	0.109680014092	192
5	2221	0.10973365409	256
5	2233	0.10974365409	320
5	2253	0.10976365409	384
5	2275	0.10977365409	448
5	3511	5.089384713426	512
5	3635	5.089514713426	576
5	3960	5.098378161809	640
5	4043	5.098408161809	704
5	4562	5.099510141363	768
5	4791	5.099560141363	832
5	5120	5.099680141363	896
5	6117	6.000016819999	960
5	6987	10.089394713426	1024
5	7207	10.089484713426	1088
5	7258	10.089534713426	1152
5	7764	10.098401801807	1216
5	7833	10.098431801807	1280
5	7998	10.099420141363	1344
5	8169	10.099480141363	1408
5	8258	10.099510141363	1472
5	8325	10.099530141363	1536
5	8835	10.109572734096	1600
5	9027	11.000016819999	1664
9	2124	0.109572734096	1
9	2152	0.109626374094	2
9	2180	0.109680014092	3
9	2221	0.10973365409	4
9	2233	0.10974365409	5
9	2253	0.10976365409	6
9	2275	0.10977365409	7
9	3511	5.089384713426	8
9	3635	5.089514713426	9
9	3960	5.098378161809	10
9	4043	5.098408161809	11
9	4562	5.099510141363	12
9	4791	5.099560141363	13
9	5120	5.099680141363	14
9	6117	6.000016819999	15
9	6987	10.089394713426	16
9	7207	10.089484713426	17
9	7258	10.089534713426	18
9	7764	10.098401801807	19
9	7833	10.098431801807	20
9	7998	10.099420141363	21
9	8169	10.099480141363	22
9	8258	10.099510141363	23
9	8325	10.099530141363	24
9	8835	10.109572734096	25
9	9027	11.000016819999	26
14	5866	5.106995624785	1
14	5871	5.107002344784	0
16	1098	0.10676142479	1
16	1126	0.106815064788	2
16	1155	0.106868704786	3
16	1166	0.106878704786	4
16	1232	0.106932344784	5
16	1254	0.106942344784	6
16	1359	0.107002344784	7
16	1922	0.108844410371	8
16	2069	0.10890123037	9
16	3399	5.089347793427	10
16	4200	5.099423221364	11
16	4727	5.099546861362	12
16	4824	5.099566861362	13
16	5237	5.099706861362	14
16	5416	5.099766861362	15
16	5616	5.099846861362	16
16	5859	5.106992344784	17
16	5871	5.107002344784	18
16	5887	5.107009064783	19
16	6182	6.000026719999	20
16	6889	10.089357793427	21
16	7300	10.089561433425	22
16	7397	10.089625073423	23
16	8384	10.099556861362	24
16	8533	10.09962050136	25
16	8737	10.10676142479	26
16	9092	11.000026719999	27
17	657	0.099096241008	1
17	1113	0.106788344789	2
17	1141	0.106841984787	3
17	1182	0.106895624785	4
17	1194	0.106905624785	5
17	1216	0.106925624785	6
17	1238	0.106935624785	7
17	1260	0.106945624785	8
17	1392	0.107015624785	9
17	1995	0.108864510371	10
17	2093	0.108924510371	11
17	3143	5.089271073428	12
17	3794	5.098314521811	13
17	4455	5.099480141363	14
17	4953	5.099600141363	15
17	5204	5.099700141363	16
17	5282	5.099720141363	17
17	5549	5.099820141363	18
17	5624	5.099850141363	19
17	5848	5.106975624785	20
17	5894	5.107009264783	21
17	5902	5.107015984782	22
17	6247	6.000036819999	23
17	6666	10.089281073428	24
17	7357	10.089598353424	25
17	7388	10.089618353424	26
17	7596	10.098328161809	27
17	7907	10.099096241008	28
17	8170	10.099480141363	29
17	8452	10.099593781361	30
17	8508	10.099613781361	31
18	1098	0.10676142479	64
18	1126	0.106815064788	128
18	1155	0.106868704786	192
18	1166	0.106878704786	256
18	1232	0.106932344784	320
18	1254	0.106942344784	384
18	1359	0.107002344784	448
18	1922	0.108844410371	512
18	2069	0.10890123037	576
18	3399	5.089347793427	640
18	4200	5.099423221364	704
18	4727	5.099546861362	768
18	4824	5.099566861362	832
18	5237	5.099706861362	896
18	5416	5.099766861362	960
18	5616	5.099846861362	1024
18	5859	5.106992344784	1088
18	5871	5.107002344784	1152
18	5887	5.107009064783	1216
18	6182	6.000026719999	1280
18	6889	10.089357793427	1344
18	7300	10.089561433425	1408
18	7397	10.089625073423	1472
18	8384	10.099556861362	1536
18	8533	10.09962050136	1600
18	8737	10.10676142479	1664
18	9092	11.000026719999	1728
19	657	0.099096241008	64
19	1113	0.106788344789	128
19	1141	0.106841984787	192
19	1182	0.106895624785	256
19	1194	0.106905624785	320
19	1216	0.106925624785	384
19	1238	0.106935624785	448
19	1260	0.106945624785	512
19	1392	0.107015624785	576
19	1995	0.108864510371	640
19	2093	0.108924510371	704
19	3143	5.089271073428	768
19	3794	5.098314521811	832
19	4455	5.099480141363	896
19	4953	5.099600141363	960
19	5204	5.099700141363	1024
19	5282	5.099720141363	1088
19	5549	5.099820141363	1152
19	5624	5.099850141363	1216
19	5848	5.106975624785	1280
19	5894	5.107009264783	1344
19	5902	5.107015984782	1408
19	6247	6.000036819999	1472
19	6666	10.089281073428	1536
19	7357	10.089598353424	1600
19	7388	10.089618353424	1664
19	7596	10.098328161809	1728
19	7907	10.099096241008	1792
19	8170	10.099480141363	1856
19	8452	10.099593781361	1920
19	8508	10.099613781361	1984
23	657	0.099096241008	1
23	1113	0.106788344789	2
23	1141	0.106841984787	3
23	1182	0.106895624785	4
23	1194	0.106905624785	5
23	1216	0.106925624785	6
23	1238	0.106935624785	7
23	1260	0.106945624785	8
23	1392	0.107015624785	9
23	1995	0.108864510371	10
23	2093	0.108924510371	11
23	3143	5.089271073428	12
23	3794	5.098314521811	13
23	4455	5.099480141363	14
23	4953	5.099600141363	15
23	5204	5.099700141363	16
23	5282	5.099720141363	17
23	5549	5.099820141363	18
23	5624	5.099850141363	19
23	5848	5.106975624785	20
23	5894	5.107009264783	21
23	5902	5.107015984782	22
23	6247	6.000036819999	23
23	6666	10.089281073428	24
23	7357	10.089598353424	25
23	7388	10.089618353424	26
23	7596	10.098328161809	27
23	7907	10.099096241008	28
23	8170	10.099480141363	29
23	8452	10.099593781361	30
23	8508	10.099613781361	31
28	4121	5.099376501365	1
28	4130	5.099383221364	0
30	101	0.087844424168	1
30	685	0.099168661372	2
30	713	0.09922230137	3
30	742	0.099275941368	4
30	753	0.099285941368	5
30	809	0.099339581366	6
30	826	0.099359581366	7
30	1293	0.106972344784	8
30	1335	0.106992344784	9
30	1385	0.107012344784	10
30	1409	0.107022344784	11
30	3269	5.089307793427	12
30	3461	5.089367793427	13
30	3896	5.09835124181	14
30	3959	5.098378061809	15
30	4090	5.099359581366	16
30	4130	5.099383221364	17
30	4147	5.099389941363	18
30	4230	5.099433221364	19
30	4279	5.099443221364	20
30	4777	5.099556861362	21
30	4876	5.099576861362	22
30	5273	5.099716861362	23
30	5365	5.099746861362	24
30	5515	5.099806861362	25
30	6242	6.000036719999	26
30	6508	10.087844424168	27
30	6780	10.089317793427	28
30	7142	10.089441433425	29
30	7316	10.089571433425	30
30	7669	10.098364881808	31
30	7733	10.098391701807	32
30	7936	10.099359581366	33
30	7960	10.099393221364	34
30	8400	10.099566861362	35
30	9150	11.000036719999	36
31	672	0.099141941373	1
31	700	0.099195581371	2
31	728	0.099249221369	3
31	769	0.099302861367	4
31	781	0.099312861367	5
31	800	0.099332861367	6
31	838	0.099366501365	7
31	1850	0.108817690372	8
31	1932	0.108847690372	9
31	2004	0.108867690372	10
31	3284	5.089311073428	11
31	3374	5.089341073428	12
31	3442	5.089361073428	13
31	3899	5.09835134181	14
31	4025	5.09840134181	15
31	4102	5.099366501365	16
31	4117	5.099376501365	17
31	4131	5.099383221364	18
31	4353	5.099460141363	19
31	4596	5.099520141363	20
31	5158	5.099690141363	21
31	5338	5.099740141363	22
31	5440	5.099780141363	23
31	5522	5.099810141363	24
31	5728	5.099970141363	25
31	6249	6.000036819999	26
31	6795	10.089321073428	27
31	7007	10.089401073428	28
31	7135	10.089441073428	29
31	7672	10.098364981808	30
31	7799	10.098414981808	31
31	7922	10.099141941373	32
31	7948	10.099376501365	33
31	9028	11.000016819999	34
32	101	0.087844424168	64
32	685	0.099168661372	128
32	713	0.09922230137	192
32	742	0.099275941368	256
32	753	0.099285941368	320
32	809	0.099339581366	384
32	826	0.099359581366	448
32	1293	0.106972344784	512
32	1335	0.106992344784	576
32	1385	0.107012344784	640
32	1409	0.107022344784	704
32	3269	5.089307793427	768
32	3461	5.089367793427	832
32	3896	5.09835124181	896
32	3959	5.098378061809	960
32	4090	5.099359581366	1024
32	4130	5.099383221364	1088
32	4147	5.099389941363	1152
32	4230	5.099433221364	1216
32	4279	5.099443221364	1280
32	4777	5.099556861362	1344
32	4876	5.099576861362	1408
32	5273	5.099716861362	1472
32	5365	5.099746861362	1536
32	5515	5.099806861362	1600
32	6242	6.000036719999	1664
32	6508	10.087844424168	1728
32	6780	10.089317793427	1792
32	7142	10.089441433425	1856
32	7316	10.089571433425	1920
32	7669	10.098364881808	1984
32	7733	10.098391701807	2048
32	7936	10.099359581366	2112
32	7960	10.099393221364	2176
32	8400	10.099566861362	2240
32	9150	11.000036719999	2304
33	672	0.099141941373	64
33	700	0.099195581371	128
33	728	0.099249221369	192
33	769	0.099302861367	256
33	781	0.099312861367	320
33	800	0.099332861367	384
33	838	0.099366501365	448
33	1850	0.108817690372	512
33	1932	0.108847690372	576
33	2004	0.108867690372	640
33	3284	5.089311073428	704
33	3374	5.089341073428	768
33	3442	5.089361073428	832
33	3899	5.09835134181	896
33	4025	5.09840134181	960
33	4102	5.099366501365	1024
33	4117	5.099376501365	1088
33	4131	5.099383221364	1152
33	4353	5.099460141363	1216
33	4596	5.099520141363	1280
33	5158	5.099690141363	1344
33	5338	5.099740141363	1408
33	5440	5.099780141363	1472
33	5522	5.099810141363	1536
33	5728	5.099970141363	1600
33	6249	6.000036819999	1664
33	6795	10.089321073428	1728
33	7007	10.089401073428	1792
33	7135	10.089441073428	1856
33	7672	10.098364981808	1920
33	7799	10.098414981808	1984
33	7922	10.099141941373	2048
33	7948	10.099376501365	2112
33	9028	11.000016819999	2176
37	672	0.099141941373	1
37	700	0.099195581371	2
37	728	0.099249221369	3
37	769	0.099302861367	4
37	781	0.099312861367	5
37	800	0.099332861367	6
37	838	0.099366501365	7
37	1850	0.108817690372	8
37	1932	0.108847690372	9
37	2004	0.108867690372	10
37	3284	5.089311073428	11
37	3374	5.089341073428	12
37	3442	5.089361073428	13
37	3899	5.09835134181	14
37	4025	5.09840134181	15
37	4102	5.099366501365	16
37	4117	5.099376501365	17
37	4131	5.099383221364	18
37	4353	5.099460141363	19
37	4596	5.099520141363	20
37	5158	5.099690141363	21
37	5338	5.099740141363	22
37	5440	5.099780141363	23
37	5522	5.099810141363	24
37	5728	5.099970141363	25
37	6249	6.000036819999	26
37	6795	10.089321073428	27
37	7007	10.089401073428	28
37	7135	10.089441073428	29
37	7672	10.098364981808	30
37	7799	10.098414981808	31
37	7922	10.099141941373	32
37	7948	10.099376501365	33
37	9028	11.000016819999	34
44	315	0.08989012085	1
44	7430	10.08989012085	2
46	315	0.08989012085	64
46	7430	10.08989012085	128
58	2320	0.111753480163	1
58	2348	0.111807120161	2
58	2377	0.111860760159	3
58	2388	0.111870760159	4
58	2454	0.111924400157	5
58	2476	0.111934400157	6
58	3270	5.089307793427	7
58	3449	5.089361433425	8
58	4630	5.099526861362	9
58	6106	6.000016719999	10
58	6781	10.089317793427	11
58	6926	10.089371433425	12
58	8107	10.099456861362	13
58	8319	10.099526861362	14
58	8877	10.111753480163	15
58	9016	11.000016719999	16
58	9349	15.099526861362	17
58	9371	15.09956050136	18
59	855	0.101318637488	1
59	2335	0.111780400162	2
59	2363	0.11183404016	3
59	2404	0.111887680158	4
59	2416	0.111897680158	5
59	2438	0.111917680158	6
59	2460	0.111927680158	7
59	2482	0.111937680158	8
59	3355	5.089334713426	9
59	3481	5.089374713426	10
59	3588	5.089444713426	11
59	4268	5.099440141363	12
59	4525	5.099500141363	13
59	4686	5.099540141363	14
59	4741	5.099550141363	15
59	5091	5.099670141363	16
59	6854	10.089344713426	17
59	6957	10.089384713426	18
59	7116	10.089434713426	19
59	7246	10.089524713426	20
59	7734	10.098391801807	21
59	8050	10.099440141363	22
59	8135	10.099470141363	23
59	8299	10.099520141363	24
59	8625	10.101318637488	25
59	9361	15.099543781361	26
60	2320	0.111753480163	64
60	2348	0.111807120161	128
60	2377	0.111860760159	192
60	2388	0.111870760159	256
60	2454	0.111924400157	320
60	2476	0.111934400157	384
60	3270	5.089307793427	448
60	3449	5.089361433425	512
60	4630	5.099526861362	576
60	6106	6.000016719999	640
60	6781	10.089317793427	704
60	6926	10.089371433425	768
60	8107	10.099456861362	832
60	8319	10.099526861362	896
60	8877	10.111753480163	960
60	9016	11.000016719999	1024
60	9349	15.099526861362	1088
60	9371	15.09956050136	1152
61	855	0.101318637488	64
61	2335	0.111780400162	128
61	2363	0.11183404016	192
61	2404	0.111887680158	256
61	2416	0.111897680158	320
61	2438	0.111917680158	384
61	2460	0.111927680158	448
61	2482	0.111937680158	512
61	3355	5.089334713426	576
61	3481	5.089374713426	640
61	3588	5.089444713426	704
61	4268	5.099440141363	768
61	4525	5.099500141363	832
61	4686	5.099540141363	896
61	4741	5.099550141363	960
61	5091	5.099670141363	1024
61	6854	10.089344713426	1088
61	6957	10.089384713426	1152
61	7116	10.089434713426	1216
61	7246	10.089524713426	1280
61	7734	10.098391801807	1344
61	8050	10.099440141363	1408
61	8135	10.099470141363	1472
61	8299	10.099520141363	1536
61	8625	10.101318637488	1600
61	9361	15.099543781361	1664
65	855	0.101318637488	1
65	2335	0.111780400162	2
65	2363	0.11183404016	3
65	2404	0.111887680158	4
65	2416	0.111897680158	5
65	2438	0.111917680158	6
65	2460	0.111927680158	7
65	2482	0.111937680158	8
65	3355	5.089334713426	9
65	3481	5.089374713426	10
65	3588	5.089444713426	11
65	4268	5.099440141363	12
65	4525	5.099500141363	13
65	4686	5.099540141363	14
65	4741	5.099550141363	15
65	5091	5.099670141363	16
65	6854	10.089344713426	17
65	6957	10.089384713426	18
65	7116	10.089434713426	19
65	7246	10.089524713426	20
65	7734	10.098391801807	21
65	8050	10.099440141363	22
65	8135	10.099470141363	23
65	8299	10.099520141363	24
65	8625	10.101318637488	25
65	9361	15.099543781361	26
70	3684	5.098250881813	1
70	3689	5.098257601812	0
72	400	0.09801304182	1
72	428	0.098066681818	2
72	456	0.098120321816	3
72	497	0.098173961814	4
72	508	0.098183961814	5
72	528	0.098203961814	6
72	589	0.098247601812	7
72	3540	5.089401433425	8
72	3677	5.098247601812	9
72	3689	5.098257601812	10
72	3705	5.098264321811	11
72	3761	5.09830124181	12
72	3786	5.09831124181	13
72	3816	5.09832124181	14
72	3844	5.09833124181	15
72	4404	5.099466861362	16
72	4672	5.099536861362	17
72	4726	5.099546861362	18
72	4875	5.099576861362	19
72	4945	5.099596861362	20
72	5056	5.099636861362	21
72	5194	5.099696861362	22
72	6183	6.000026719999	23
72	7051	10.089411433425	24
72	7287	10.089551433425	25
72	7515	10.09801304182	26
72	7530	10.098247601812	27
72	7552	10.09828124181	28
72	8223	10.099496861362	29
72	8288	10.099516861362	30
72	8367	10.099546861362	31
72	9093	11.000026719999	32
73	87	0.087580265193	1
73	415	0.098039961819	2
73	443	0.098093601817	3
73	472	0.098147241815	4
73	484	0.098157241815	5
73	540	0.098210881813	6
73	552	0.098220881813	7
73	608	0.098260881813	8
73	1318	0.106985624785	9
73	1417	0.107025624785	10
73	1432	0.107035624785	11
73	2031	0.108874510371	12
73	2106	0.108934510371	13
73	3171	5.089281073428	14
73	3668	5.098240881813	15
73	3712	5.098264521811	16
73	3723	5.09827124181	17
73	4491	5.099490141363	18
73	4563	5.099510141363	19
73	4792	5.099560141363	20
73	4983	5.099610141363	21
73	5374	5.099750141363	22
73	6279	6.000046819999	23
73	6494	10.087580265193	24
73	6689	10.089291073428	25
73	7542	10.098264521811	26
73	8088	10.099450141363	27
73	8199	10.099490141363	28
73	8349	10.099540141363	29
73	9155	11.000036819999	30
74	400	0.09801304182	64
74	428	0.098066681818	128
74	456	0.098120321816	192
74	497	0.098173961814	256
74	508	0.098183961814	320
74	528	0.098203961814	384
74	589	0.098247601812	448
74	3540	5.089401433425	512
74	3677	5.098247601812	576
74	3689	5.098257601812	640
74	3705	5.098264321811	704
74	3761	5.09830124181	768
74	3786	5.09831124181	832
74	3816	5.09832124181	896
74	3844	5.09833124181	960
74	4404	5.099466861362	1024
74	4672	5.099536861362	1088
74	4726	5.099546861362	1152
74	4875	5.099576861362	1216
74	4945	5.099596861362	1280
74	5056	5.099636861362	1344
74	5194	5.099696861362	1408
74	6183	6.000026719999	1472
74	7051	10.089411433425	1536
74	7287	10.089551433425	1600
74	7515	10.09801304182	1664
74	7530	10.098247601812	1728
74	7552	10.09828124181	1792
74	8223	10.099496861362	1856
74	8288	10.099516861362	1920
74	8367	10.099546861362	1984
74	9093	11.000026719999	2048
75	87	0.087580265193	64
75	415	0.098039961819	128
75	443	0.098093601817	192
75	472	0.098147241815	256
75	484	0.098157241815	320
75	540	0.098210881813	384
75	552	0.098220881813	448
75	608	0.098260881813	512
75	1318	0.106985624785	576
75	1417	0.107025624785	640
75	1432	0.107035624785	704
75	2031	0.108874510371	768
75	2106	0.108934510371	832
75	3171	5.089281073428	896
75	3668	5.098240881813	960
75	3712	5.098264521811	1024
75	3723	5.09827124181	1088
75	4491	5.099490141363	1152
75	4563	5.099510141363	1216
75	4792	5.099560141363	1280
75	4983	5.099610141363	1344
75	5374	5.099750141363	1408
75	6279	6.000046819999	1472
75	6494	10.087580265193	1536
75	6689	10.089291073428	1600
75	7542	10.098264521811	1664
75	8088	10.099450141363	1728
75	8199	10.099490141363	1792
75	8349	10.099540141363	1856
75	9155	11.000036819999	1920
79	87	0.087580265193	1
79	415	0.098039961819	2
79	443	0.098093601817	3
79	472	0.098147241815	4
79	484	0.098157241815	5
79	540	0.098210881813	6
79	552	0.098220881813	7
79	608	0.098260881813	8