file 107956 1336678085                                          
version 2
run udp_streaming-0-20120510-19:05:24-17866
attr configname udp_streaming
attr datetime 20120510-19:05:24
attr experiment udp_streaming
attr inifile omnetpp.ini
attr iterationvars ""
attr iterationvars2 $repetition=0
attr measurement ""
attr network homenet
attr processid 17866
attr repetition 0
attr replication #0
attr resultdir results
attr runnumber 0
attr seedset 0
vector 156  homenet.kitchen.eth[2].mac  framesSent  ETV
156	43417 746 71 9095 0.072665481895 11.000026719999 28 1 28 406 7714
vector 158  homenet.kitchen.eth[2].mac  bytesSent  ETV
158	45122 795 71 9095 0.072665481895 11.000026719999 28 64 1792 25984 31596544
vector 185  homenet.office.eth[1].mac  framesReceivedOK  ETV
185	49072 746 72 9102 0.072665581895 11.000026819999 28 1 28 406 7714
vector 187  homenet.office.eth[1].mac  bytesReceivedOK  ETV
187	50842 795 72 9102 0.072665581895 11.000026819999 28 64 1792 25984 31596544
vector 191  homenet.office.eth[1].mac  framesPassedToHL  ETV
191	51637 746 72 9102 0.072665581895 11.000026819999 28 1 28 406 7714
vector 226  homenet.office.eth[4].mac  framesSent  ETV
226	60095 798 86 9151 0.087580165193 11.000036719999 30 1 30 465 9455
vector 228  homenet.office.eth[4].mac  bytesSent  ETV
228	61743 851 86 9151 0.087580165193 11.000036719999 30 64 1920 29760 38727680
vector 73  homenet.room_C.eth[2].mac  framesReceivedOK  ETV
73	27323 768 87 9155 0.087580265193 11.000036819999 30 1 30 465 9455
vector 75  homenet.room_C.eth[2].mac  bytesReceivedOK  ETV
75	28966 821 87 9155 0.087580265193 11.000036819999 30 64 1920 29760 38727680
vector 79  homenet.room_C.eth[2].mac  framesPassedToHL  ETV
79	29787 768 87 9155 0.087580265193 11.000036819999 30 1 30 465 9455
vector 30  homenet.room_A.eth[2].mac  framesSent  ETV
30	18721 928 101 9150 0.087844424168 11.000036719999 36 1 36 666 16206
vector 32  homenet.room_A.eth[2].mac  bytesSent  ETV
32	20523 993 101 9150 0.087844424168 11.000036719999 36 64 2304 42624 66379776
vector 353  homenet.living_room.eth[3].mac  framesReceivedOK  ETV
353	89774 964 102 9154 0.087844524168 11.000036819999 36 1 36 666 16206
vector 355  homenet.living_room.eth[3].mac  bytesReceivedOK  ETV
355	91707 1029 102 9154 0.087844524168 11.000036819999 36 64 2304 42624 66379776
vector 359  homenet.living_room.eth[3].mac  framesPassedToHL  ETV
359	92736 964 102 9154 0.087844524168 11.000036819999 36 1 36 666 16206
vector 184  homenet.office.eth[1].mac  framesSent  ETV
184	48113 959 116 9019 0.088982773438 11.000016719999 36 1 36 666 16206
vector 186  homenet.office.eth[1].mac  bytesSent  ETV
186	49818 1024 116 9019 0.088982773438 11.000016719999 36 64 2304 42624 66379776
vector 157  homenet.kitchen.eth[2].mac  framesReceivedOK  ETV
157	44163 959 117 9026 0.088982873438 11.000016819999 36 1 36 666 16206
vector 159  homenet.kitchen.eth[2].mac  bytesReceivedOK  ETV
159	45917 1024 117 9026 0.088982873438 11.000016819999 36 64 2304 42624 66379776
vector 163  homenet.kitchen.eth[2].mac  framesPassedToHL  ETV
163	46941 959 117 9026 0.088982873438 11.000016819999 36 1 36 666 16206
vector 282  homenet.room_B.eth[3].mac  framesSent  ETV
282	71468 927 299 10224 0.089809224551 20.040528799979 34 1 34 595 13685
vector 284  homenet.room_B.eth[3].mac  bytesSent  ETV
284	73366 988 299 10224 0.089809224551 20.040528799979 34 64 7086 52810 170682620
vector 339  homenet.living_room.eth[2].mac  framesReceivedOK  ETV
339	84936 927 300 10225 0.089809324551 20.040528899979 34 1 34 595 13685
vector 341  homenet.living_room.eth[2].mac  bytesReceivedOK  ETV
341	86899 988 300 10225 0.089809324551 20.040528899979 34 64 7086 52810 170682620
vector 345  homenet.living_room.eth[2].mac  framesPassedToHL  ETV
345	87887 927 300 10225 0.089809324551 20.040528899979 34 1 34 595 13685
vector 44  homenet.room_C.eth[0].mac  framesSent  ETV
44	23325 48 315 7430 0.08989012085 10.08989012085 2 1 2 3 5
vector 46  homenet.room_C.eth[0].mac  bytesSent  ETV
46	23373 51 315 7430 0.08989012085 10.08989012085 2 64 128 192 20480
vector 413  homenet.Host1.eth[0].mac  framesReceivedOK  ETV
413	102010 50 316 7431 0.08989032085 10.08989032085 2 1 2 3 5
vector 415  homenet.Host1.eth[0].mac  bytesReceivedOK  ETV
415	102060 53 316 7431 0.08989032085 10.08989032085 2 64 128 192 20480
vector 419  homenet.Host1.eth[0].mac  framesPassedToHL  ETV
419	102113 50 316 7431 0.08989032085 10.08989032085 2 1 2 3 5
vector 2  homenet.room_A.eth[0].mac  framesSent  ETV
2	11545 571 330 9015 0.09027874745 11.000016719999 23 1 23 276 4324
vector 4  homenet.room_A.eth[0].mac  bytesSent  ETV
4	12764 610 330 9015 0.09027874745 11.000016719999 23 64 1472 17664 17711104
vector 269  homenet.room_B.eth[2].mac  framesReceivedOK  ETV
269	68833 617 331 9022 0.09027884745 11.000016819999 23 1 23 276 4324
vector 271  homenet.room_B.eth[2].mac  bytesReceivedOK  ETV
271	70195 656 331 9022 0.09027884745 11.000016819999 23 64 1472 17664 17711104
vector 275  homenet.room_B.eth[2].mac  framesPassedToHL  ETV
275	70851 617 331 9022 0.09027884745 11.000016819999 23 1 23 276 4324
vector 198  homenet.office.eth[2].mac  framesSent  ETV
198	52383 700 345 9096 0.092490713726 11.000026719999 26 1 26 351 6201
vector 200  homenet.office.eth[2].mac  bytesSent  ETV
200	53808 745 345 9096 0.092490713726 11.000026719999 26 64 1664 22464 25399296
vector 367  homenet.living_room.eth[4].mac  framesReceivedOK  ETV
367	94425 700 346 9103 0.092490813726 11.000026819999 26 1 26 351 6201
vector 369  homenet.living_room.eth[4].mac  bytesReceivedOK  ETV
369	95897 745 346 9103 0.092490813726 11.000026819999 26 64 1664 22464 25399296
vector 373  homenet.living_room.eth[4].mac  framesPassedToHL  ETV
373	96642 700 346 9103 0.092490813726 11.000026819999 26 1 26 351 6201
vector 240  homenet.room_B.eth[0].mac  framesSent  ETV
240	64351 133 361 9828 0.094606483717 20.000293119979 5 1 5 15 55
vector 242  homenet.room_B.eth[0].mac  bytesSent  ETV
242	64671 142 361 9828 0.094606483717 20.000293119979 5 64 320 960 225280
vector 564  homenet.Emitter0.stats.mac[1]  framesReceivedOK  ETV
564	107343 133 362 9829 0.094606583717 20.000293219979 5 1 5 15 55
vector 566  homenet.Emitter0.stats.mac[1]  bytesReceivedOK  ETV
566	107681 142 362 9829 0.094606583717 20.000293219979 5 64 320 960 225280
vector 570  homenet.Emitter0.stats.mac[1]  framesPassedToHL  ETV
570	107823 133 362 9829 0.094606583717 20.000293219979 5 1 5 15 55
vector 550  homenet.Emitter0.stats.relayUnit  "buffer level"  ETV
550	105615 672 363 10208 0.094606583717 20.040348139981 24 0 1046 5678 5499252
vector 551  homenet.Emitter0.stats.mac[0]  framesSent  ETV
551	106287 133 369 9836 0.094613303716 20.000299939978 5 1 5 15 55
vector 553  homenet.Emitter0.stats.mac[0]  bytesSent  ETV
553	106612 142 369 9836 0.094613303716 20.000299939978 5 64 320 960 225280
vector 397  homenet.Host0.eth[0].mac  framesReceivedOK  ETV
397	101392 133 370 9837 0.094613403716 20.000300039978 5 1 5 15 55
vector 399  homenet.Host0.eth[0].mac  bytesReceivedOK  ETV
399	101735 142 370 9837 0.094613403716 20.000300039978 5 64 320 960 225280
vector 403  homenet.Host0.eth[0].mac  framesPassedToHL  ETV
403	101877 133 370 9837 0.094613403716 20.000300039978 5 1 5 15 55
vector 86  homenet.garage.eth[0].mac  framesSent  ETV
86	30555 50 385 7500 0.097467412056 10.097467412056 2 1 2 3 5
vector 88  homenet.garage.eth[0].mac  bytesSent  ETV
88	30605 53 385 7500 0.097467412056 10.097467412056 2 64 128 192 20480
vector 478  homenet.Host5.eth[0].mac  framesReceivedOK  ETV
478	103348 52 386 7501 0.097467612056 10.097467612056 2 1 2 3 5
vector 480  homenet.Host5.eth[0].mac  bytesReceivedOK  ETV
480	103400 55 386 7501 0.097467612056 10.097467612056 2 64 128 192 20480
vector 484  homenet.Host5.eth[0].mac  framesPassedToHL  ETV
484	103455 52 386 7501 0.097467612056 10.097467612056 2 1 2 3 5
vector 72  homenet.room_C.eth[2].mac  framesSent  ETV
72	26505 818 400 9093 0.09801304182 11.000026719999 32 1 32 528 11440
vector 74  homenet.room_C.eth[2].mac  bytesSent  ETV
74	28091 875 400 9093 0.09801304182 11.000026719999 32 64 2048 33792 46858240
vector 227  homenet.office.eth[4].mac  framesReceivedOK  ETV
227	60893 850 401 9100 0.09801314182 11.000026819999 32 1 32 528 11440
vector 229  homenet.office.eth[4].mac  bytesReceivedOK  ETV
229	62594 907 401 9100 0.09801314182 11.000026819999 32 64 2048 33792 46858240
vector 233  homenet.office.eth[4].mac  framesPassedToHL  ETV
233	63501 850 401 9100 0.09801314182 11.000026819999 32 1 32 528 11440
vector 310  homenet.living_room.eth[0].mac  framesSent  ETV
310	81276 52 626 7876 0.098600232908 10.098600232908 2 1 2 3 5
vector 312  homenet.living_room.eth[0].mac  bytesSent  ETV
312	81328 55 626 7876 0.098600232908 10.098600232908 2 64 128 192 20480
vector 462  homenet.Host4.eth[0].mac  framesReceivedOK  ETV
462	103189 52 627 7877 0.098600432908 10.098600432908 2 1 2 3 5
vector 464  homenet.Host4.eth[0].mac  bytesReceivedOK  ETV
464	103241 55 627 7877 0.098600432908 10.098600432908 2 64 128 192 20480
vector 468  homenet.Host4.eth[0].mac  framesPassedToHL  ETV
468	103296 52 627 7877 0.098600432908 10.098600432908 2 1 2 3 5
vector 100  homenet.garage.eth[1].mac  framesSent  ETV
100	30708 859 641 9017 0.098649498685 11.000016719999 32 1 32 528 11440
vector 102  homenet.garage.eth[1].mac  bytesSent  ETV
102	32645 916 641 9017 0.098649498685 11.000016719999 32 64 2048 33792 46858240
vector 297  homenet.room_B.eth[4].mac  framesReceivedOK  ETV
297	77491 859 642 9024 0.098649598685 11.000016819999 32 1 32 528 11440
vector 299  homenet.room_B.eth[4].mac  bytesReceivedOK  ETV
299	79501 916 642 9024 0.098649598685 11.000016819999 32 64 2048 33792 46858240
vector 303  homenet.room_B.eth[4].mac  framesPassedToHL  ETV
303	80417 859 642 9024 0.098649598685 11.000016819999 32 1 32 528 11440
vector 212  homenet.office.eth[3].mac  framesSent  ETV
212	56102 835 656 8503 0.099096141008 10.099613681361 31 1 31 496 10416
vector 214  homenet.office.eth[3].mac  bytesSent  ETV
214	57660 890 656 8503 0.099096141008 10.099613681361 31 64 1984 31744 42663936
vector 17  homenet.room_A.eth[1].mac  framesReceivedOK  ETV
17	15461 804 657 8508 0.099096241008 10.099613781361 31 1 31 496 10416
vector 19  homenet.room_A.eth[1].mac  bytesReceivedOK  ETV
19	17008 859 657 8508 0.099096241008 10.099613781361 31 64 1984 31744 42663936
vector 23  homenet.room_A.eth[1].mac  framesPassedToHL  ETV
23	17867 804 657 8508 0.099096241008 10.099613781361 31 1 31 496 10416
vector 352  homenet.living_room.eth[3].mac  framesSent  ETV
352	88866 908 671 9021 0.099141841373 11.000016719999 34 1 34 595 13685
vector 354  homenet.living_room.eth[3].mac  bytesSent  ETV
354	90738 969 671 9021 0.099141841373 11.000016719999 34 64 2176 38080 56053760
vector 31  homenet.room_A.eth[2].mac  framesReceivedOK  ETV
31	19649 874 672 9028 0.099141941373 11.000016819999 34 1 34 595 13685
vector 33  homenet.room_A.eth[2].mac  bytesReceivedOK  ETV
33	21516 935 672 9028 0.099141941373 11.000016819999 34 64 2176 38080 56053760
vector 37  homenet.room_A.eth[2].mac  framesPassedToHL  ETV
37	22451 874 672 9028 0.099141941373 11.000016819999 34 1 34 595 13685
vector 254  homenet.room_B.eth[1].mac  framesSent  ETV
254	65205 701 854 9360 0.101318537488 15.099543681361 26 1 26 351 6201
vector 256  homenet.room_B.eth[1].mac  bytesSent  ETV
256	66390 746 854 9360 0.101318537488 15.099543681361 26 64 1664 22464 25399296
vector 59  homenet.room_C.eth[1].mac  framesReceivedOK  ETV
59	23890 675 855 9361 0.101318637488 15.099543781361 26 1 26 351 6201
vector 61  homenet.room_C.eth[1].mac  bytesReceivedOK  ETV
61	25060 720 855 9361 0.101318637488 15.099543781361 26 64 1664 22464 25399296
vector 65  homenet.room_C.eth[1].mac  framesPassedToHL  ETV
65	25780 675 855 9361 0.101318637488 15.099543781361 26 1 26 351 6201
vector 324  homenet.living_room.eth[1].mac  framesSent  ETV
324	81383 698 869 8639 0.10231934081 10.10231934081 26 1 26 351 6201
vector 326  homenet.living_room.eth[1].mac  bytesSent  ETV
326	82454 743 869 8639 0.10231934081 10.10231934081 26 64 1664 22464 25399296
vector 115  homenet.garage.eth[2].mac  framesReceivedOK  ETV
115	36163 698 870 8640 0.10231944081 10.10231944081 26 1 26 351 6201
vector 117  homenet.garage.eth[2].mac  bytesReceivedOK  ETV
117	37256 743 870 8640 0.10231944081 10.10231944081 26 64 1664 22464 25399296
vector 121  homenet.garage.eth[2].mac  framesPassedToHL  ETV
121	37999 698 870 8640 0.10231944081 10.10231944081 26 1 26 351 6201
vector 380  homenet.living_room.eth[5].mac  framesSent  ETV
380	97342 868 884 10235 0.102398063519 20.040624179978 32 1 32 528 11440
vector 382  homenet.living_room.eth[5].mac  bytesSent  ETV
382	98884 925 884 10235 0.102398063519 20.040624179978 32 64 6958 48522 157716220
vector 143  homenet.kitchen.eth[1].mac  framesReceivedOK  ETV
143	39935 868 885 10236 0.102398163519 20.040624279978 32 1 32 528 11440
vector 145  homenet.kitchen.eth[1].mac  bytesReceivedOK  ETV
145	41520 925 885 10236 0.102398163519 20.040624279978 32 64 6958 48522 157716220
vector 149  homenet.kitchen.eth[1].mac  framesPassedToHL  ETV
149	42445 868 885 10236 0.102398163519 20.040624279978 32 1 32 528 11440
vector 296  homenet.room_B.eth[4].mac  framesSent  ETV
296	76413 1078 899 9152 0.103069780731 11.000036719999 40 1 40 820 22140
vector 298  homenet.room_B.eth[4].mac  bytesSent  ETV
298	78350 1151 899 9152 0.103069780731 11.000036719999 40 64 2560 52480 90685440
vector 101  homenet.garage.eth[1].mac  framesReceivedOK  ETV
101	31567 1078 900 9156 0.103069880731 11.000036819999 40 1 40 820 22140
vector 103  homenet.garage.eth[1].mac  bytesReceivedOK  ETV
103	33561 1151 900 9156 0.103069880731 11.000036819999 40 64 2560 52480 90685440
vector 107  homenet.garage.eth[1].mac  framesPassedToHL  ETV
107	34712 1078 900 9156 0.103069880731 11.000036819999 40 1 40 820 22140
vector 170  homenet.office.eth[0].mac  framesSent  ETV
170	47900 53 1083 8722 0.105651051584 10.105651051584 2 1 2 3 5
vector 172  homenet.office.eth[0].mac  bytesSent  ETV
172	47953 56 1083 8722 0.105651051584 10.105651051584 2 64 128 192 20480
vector 429  homenet.Host2.eth[0].mac  framesReceivedOK  ETV
429	102163 53 1084 8723 0.105651251584 10.105651251584 2 1 2 3 5
vector 431  homenet.Host2.eth[0].mac  bytesReceivedOK  ETV
431	102216 56 1084 8723 0.105651251584 10.105651251584 2 64 128 192 20480
vector 435  homenet.Host2.eth[0].mac  framesPassedToHL  ETV
435	102272 53 1084 8723 0.105651251584 10.105651251584 2 1 2 3 5
vector 16  homenet.room_A.eth[1].mac  framesSent  ETV
16	14765 696 1098 9092 0.10676142479 11.000026719999 27 1 27 378 6930
vector 18  homenet.room_A.eth[1].mac  bytesSent  ETV
18	16265 743 1098 9092 0.10676142479 11.000026719999 27 64 1728 24192 28385280
vector 213  homenet.office.eth[3].mac  framesReceivedOK  ETV
213	56937 723 1099 9099 0.10676152479 11.000026819999 27 1 27 378 6930
vector 215  homenet.office.eth[3].mac  bytesReceivedOK  ETV
215	58550 770 1099 9099 0.10676152479 11.000026819999 27 64 1728 24192 28385280
vector 219  homenet.office.eth[3].mac  framesPassedToHL  ETV
219	59320 723 1099 9099 0.10676152479 11.000026819999 27 1 27 378 6930
vector 366  homenet.living_room.eth[4].mac  framesSent  ETV
366	93700 725 1449 9098 0.10819006756 11.000026719999 27 1 27 378 6930
vector 368  homenet.living_room.eth[4].mac  bytesSent  ETV
368	95125 772 1449 9098 0.10819006756 11.000026719999 27 64 1728 24192 28385280
vector 199  homenet.office.eth[2].mac  framesReceivedOK  ETV
199	53083 725 1450 9105 0.10819016756 11.000026819999 27 1 27 378 6930
vector 201  homenet.office.eth[2].mac  bytesReceivedOK  ETV
201	54553 772 1450 9105 0.10819016756 11.000026819999 27 64 1728 24192 28385280
vector 205  homenet.office.eth[2].mac  framesPassedToHL  ETV
205	55325 725 1450 9105 0.10819016756 11.000026819999 27 1 27 378 6930
vector 338  homenet.living_room.eth[2].mac  framesSent  ETV
338	83965 971 1604 9883 0.108576670378 20.000514339974 36 1 36 666 16206
vector 340  homenet.living_room.eth[2].mac  bytesSent  ETV
340	85863 1036 1604 9883 0.108576670378 20.000514339974 36 64 2304 42624 66379776
vector 283  homenet.room_B.eth[3].mac  framesReceivedOK  ETV
283	72395 971 1605 9884 0.108576770378 20.000514439974 36 1 36 666 16206
vector 285  homenet.room_B.eth[3].mac  bytesReceivedOK  ETV
285	74354 1036 1605 9884 0.108576770378 20.000514439974 36 64 2304 42624 66379776
vector 289  homenet.room_B.eth[3].mac  framesPassedToHL  ETV
289	75390 971 1605 9884 0.108576770378 20.000514439974 36 1 36 666 16206
vector 268  homenet.room_B.eth[2].mac  framesSent  ETV
268	68133 700 2123 9020 0.109572634096 11.000016719999 26 1 26 351 6201
vector 270  homenet.room_B.eth[2].mac  bytesSent  ETV
270	69450 745 2123 9020 0.109572634096 11.000016719999 26 64 1664 22464 25399296
vector 3  homenet.room_A.eth[0].mac  framesReceivedOK  ETV
3	12116 648 2124 9027 0.109572734096 11.000016819999 26 1 26 351 6201
vector 5  homenet.room_A.eth[0].mac  bytesReceivedOK  ETV
5	13374 693 2124 9027 0.109572734096 11.000016819999 26 64 1664 22464 25399296
vector 9  homenet.room_A.eth[0].mac  framesPassedToHL  ETV
9	14067 648 2124 9027 0.109572734096 11.000016819999 26 1 26 351 6201
vector 128  homenet.kitchen.eth[0].mac  framesSent  ETV
128	38697 191 2293 10170 0.111048996553 20.030719559977 7 1 7 28 140
vector 130  homenet.kitchen.eth[0].mac  bytesSent  ETV
130	38942 208 2293 10170 0.111048996553 20.030719559977 7 64 4376 11612 37044920
vector 507  homenet.Receptor3.stats.mac[0]  framesReceivedOK  ETV
507	104068 191 2294 10171 0.111049096553 20.030719659977 7 1 7 28 140
vector 509  homenet.Receptor3.stats.mac[0]  bytesReceivedOK  ETV
509	104316 208 2294 10171 0.111049096553 20.030719659977 7 64 4376 11612 37044920
vector 513  homenet.Receptor3.stats.mac[0]  framesPassedToHL  ETV
513	104524 191 2294 10171 0.111049096553 20.030719659977 7 1 7 28 140
vector 505  homenet.Receptor3.stats.relayUnit  "buffer level"  ETV
505	103507 507 2299 10177 0.111049096553 20.030719659977 18 0 1046 4504 4396944
vector 518  homenet.Receptor3.stats.mac[1]  framesSent  ETV
518	104715 191 2305 10182 0.111055816552 20.030804939976 7 1 7 28 140
vector 520  homenet.Receptor3.stats.mac[1]  bytesSent  ETV
520	104960 208 2305 10182 0.111055816552 20.030804939976 7 64 4376 11612 37044920
vector 446  homenet.Host3.eth[0].mac  framesReceivedOK  ETV
446	102542 191 2306 10183 0.111055916552 20.030805039976 7 1 7 28 140
vector 448  homenet.Host3.eth[0].mac  bytesReceivedOK  ETV
448	102790 208 2306 10183 0.111055916552 20.030805039976 7 64 4376 11612 37044920
vector 452  homenet.Host3.eth[0].mac  framesPassedToHL  ETV
452	102998 191 2306 10183 0.111055916552 20.030805039976 7 1 7 28 140
vector 58  homenet.room_C.eth[1].mac  framesSent  ETV
58	23424 466 2320 9371 0.111753480163 15.09956050136 18 1 18 171 2109
vector 60  homenet.room_C.eth[1].mac  bytesSent  ETV
60	24565 495 2320 9371 0.111753480163 15.09956050136 18 64 1152 10944 8638464
vector 255  homenet.room_B.eth[1].mac  framesReceivedOK  ETV
255	65906 484 2321 9372 0.111753580163 15.09956060136 18 1 18 171 2109
vector 257  homenet.room_B.eth[1].mac  bytesReceivedOK  ETV
257	67136 513 2321 9372 0.111753580163 15.09956060136 18 64 1152 10944 8638464
vector 261  homenet.room_B.eth[1].mac  framesPassedToHL  ETV
261	67649 484 2321 9372 0.111753580163 15.09956060136 18 1 18 171 2109
vector 142  homenet.kitchen.eth[1].mac  framesSent  ETV
142	39261 674 2503 9916 0.113853029435 20.000643359971 25 1 25 325 5525
vector 144  homenet.kitchen.eth[1].mac  bytesSent  ETV
144	40803 717 2503 9916 0.113853029435 20.000643359971 25 64 1600 20800 22630400
vector 381  homenet.living_room.eth[5].mac  framesReceivedOK  ETV
381	98210 674 2504 9917 0.113853129435 20.000643459971 25 1 25 325 5525
vector 383  homenet.living_room.eth[5].mac  bytesReceivedOK  ETV
383	99809 717 2504 9917 0.113853129435 20.000643459971 25 64 1600 20800 22630400
vector 387  homenet.living_room.eth[5].mac  framesPassedToHL  ETV
387	100526 674 2504 9917 0.113853129435 20.000643459971 25 1 25 325 5525
vector 114  homenet.garage.eth[2].mac  framesSent  ETV
114	35790 373 2686 9094 0.118243337752 11.000026719999 14 1 14 105 1015
vector 116  homenet.garage.eth[2].mac  bytesSent  ETV
116	36861 395 2686 9094 0.118243337752 11.000026719999 14 64 896 6720 4157440
vector 325  homenet.living_room.eth[1].mac  framesReceivedOK  ETV
325	82081 373 2687 9101 0.118243437752 11.000026819999 14 1 14 105 1015
vector 327  homenet.living_room.eth[1].mac  bytesReceivedOK  ETV
327	83197 395 2687 9101 0.118243437752 11.000026819999 14 64 896 6720 4157440
vector 331  homenet.living_room.eth[1].mac  framesPassedToHL  ETV
331	83592 373 2687 9101 0.118243437752 11.000026819999 14 1 14 105 1015
vector 182  homenet.office.eth[1].queue  "queue length"  ETV
182	48009 104 3036 6563 5.089210613431 10.08921733343 4 0 1 2 2
vector 154  homenet.kitchen.eth[2].queue  "queue length"  ETV
154	43313 104 3049 6580 5.08921743343 10.089224153429 4 0 1 2 2
vector 70  homenet.room_C.eth[2].queue  "queue length"  ETV
70	26455 50 3684 3689 5.098250881813 5.098257601812 2 0 1 1 1
vector 224  homenet.office.eth[4].queue  "queue length"  ETV
224	60043 52 3697 3706 5.098257701812 5.098264421811 2 0 1 1 1
vector 350  homenet.living_room.eth[3].queue  "queue length"  ETV
350	88814 52 4108 4113 5.099369681366 5.099376401365 2 0 1 1 1
vector 28  homenet.room_A.eth[2].queue  "queue length"  ETV
28	18671 50 4121 4130 5.099376501365 5.099383221364 2 0 1 1 1
vector 294  homenet.room_B.eth[4].queue  "queue length"  ETV
294	76361 52 5778 5783 5.103297620724 5.103304340723 2 0 1 1 1
vector 98  homenet.garage.eth[1].queue  "queue length"  ETV
98	30658 50 5791 5800 5.103304440723 5.103311160722 2 0 1 1 1
vector 14  homenet.room_A.eth[1].queue  "queue length"  ETV
14	14715 50 5866 5871 5.106995624785 5.107002344784 2 0 1 1 1
vector 210  homenet.office.eth[3].queue  "queue length"  ETV
210	56050 52 5879 5888 5.107002444784 5.107009164783 2 0 1 1 1
vector 445  homenet.Host3.eth[0].mac  framesSent  ETV
445	102488 54 9602 9647 20.000016719999 20.000063999995 2 1 2 3 5
vector 447  homenet.Host3.eth[0].mac  bytesSent  ETV
447	102733 57 9602 9647 20.000016719999 20.000063999995 2 64 128 192 20480
vector 519  homenet.Receptor3.stats.mac[1]  framesReceivedOK  ETV
519	104906 54 9603 9648 20.000016819999 20.000064099995 2 1 2 3 5
vector 521  homenet.Receptor3.stats.mac[1]  bytesReceivedOK  ETV
521	105168 57 9603 9648 20.000016819999 20.000064099995 2 64 128 192 20480
vector 525  homenet.Receptor3.stats.mac[1]  framesPassedToHL  ETV
525	105225 54 9603 9648 20.000016819999 20.000064099995 2 1 2 3 5
vector 506  homenet.Receptor3.stats.mac[0]  framesSent  ETV
506	104014 54 9610 9655 20.000023539998 20.000070819994 2 1 2 3 5
vector 508  homenet.Receptor3.stats.mac[0]  bytesSent  ETV
508	104259 57 9610 9655 20.000023539998 20.000070819994 2 64 128 192 20480
vector 129  homenet.kitchen.eth[0].mac  framesReceivedOK  ETV
129	38888 54 9611 9656 20.000023639998 20.000070919994 2 1 2 3 5
vector 131  homenet.kitchen.eth[0].mac  bytesReceivedOK  ETV
131	39150 57 9611 9656 20.000023639998 20.000070919994 2 64 128 192 20480
vector 135  homenet.kitchen.eth[0].mac  framesPassedToHL  ETV
135	39207 54 9611 9656 20.000023639998 20.000070919994 2 1 2 3 5
vector 396  homenet.Host0.eth[0].mac  framesSent  ETV
396	101200 192 9755 10202 20.000212199985 20.040348039981 7 1 7 28 140
vector 398  homenet.Host0.eth[0].mac  bytesSent  ETV
398	101525 210 9755 10202 20.000212199985 20.040348039981 7 64 5358 16522 64295420
vector 552  homenet.Emitter0.stats.mac[0]  framesReceivedOK  ETV
552	106420 192 9756 10203 20.000212299985 20.040348139981 7 1 7 28 140
vector 554  homenet.Emitter0.stats.mac[0]  bytesReceivedOK  ETV
554	106754 210 9756 10203 20.000212299985 20.040348139981 7 64 5358 16522 64295420
vector 558  homenet.Emitter0.stats.mac[0]  framesPassedToHL  ETV
558	106964 192 9756 10203 20.000212299985 20.040348139981 7 1 7 28 140
vector 563  homenet.Emitter0.stats.mac[1]  framesSent  ETV
563	107156 187 9766 10213 20.000219019984 20.04043341998 7 1 7 28 140
vector 565  homenet.Emitter0.stats.mac[1]  bytesSent  ETV
565	107476 205 9766 10213 20.000219019984 20.04043341998 7 64 5358 16522 64295420
vector 241  homenet.room_B.eth[0].mac  framesReceivedOK  ETV
241	64484 187 9767 10214 20.000219119984 20.04043351998 7 1 7 28 140
vector 243  homenet.room_B.eth[0].mac  bytesReceivedOK  ETV
243	64813 205 9767 10214 20.000219119984 20.04043351998 7 64 5358 16522 64295420
vector 247  homenet.room_B.eth[0].mac  framesPassedToHL  ETV
247	65018 187 9767 10214 20.000219119984 20.04043351998 7 1 7 28 140
vector 530  homenet.Receptor3.stats.thruputMeter  "thruput (bit/sec)"  ETV
530	105279 13 9944 9944 0 0 1 0 0 0 0
vector 531  homenet.Receptor3.stats.thruputMeter  packet/sec  ETV
531	105292 13 9944 9944 0 0 1 0 0 0 0
vector 533  homenet.Receptor3.stats.thruputMeter  jitterVector  ETV
533	105468 147 9944 10175 20.000834219969 20.030719659977 4 0 4.7574141e-05 0.000120058261 4.903814181687e-09
vector 532  homenet.Receptor3.stats.thruputMeter  pkDelayVector  ETV
532	105305 163 9944 10175 20.000834219969 20.030719659977 4 0.000456899995 0.000571459987 0.001942159972 9.5283933303504e-07
vector 440  homenet.Host3.udpApp[0]  "video stream eed"  ETV
440	102325 163 9958 10189 20.000929599968 20.030815039976 4 0.000562279994 0.000676839986 0.002363679968 1.4065887416064e-06
