version 2
run udp_echo-0-20120511-11:43:33-5188
attr configname udp_echo
attr datetime 20120511-11:43:33
attr experiment udp_echo
attr inifile omnetpp.ini
attr iterationvars ""
attr iterationvars2 $repetition=0
attr measurement ""
attr network homenet
attr processid 5188
attr repetition 0
attr replication #0
attr resultdir results
attr runnumber 0
attr seedset 0

vector 156  homenet.kitchen.eth[2].mac  framesSent  ETV
vector 158  homenet.kitchen.eth[2].mac  bytesSent  ETV
vector 185  homenet.office.eth[1].mac  framesReceivedOK  ETV
vector 187  homenet.office.eth[1].mac  bytesReceivedOK  ETV
vector 191  homenet.office.eth[1].mac  framesPassedToHL  ETV
vector 226  homenet.office.eth[4].mac  framesSent  ETV
vector 228  homenet.office.eth[4].mac  bytesSent  ETV
vector 73  homenet.room_C.eth[2].mac  framesReceivedOK  ETV
vector 75  homenet.room_C.eth[2].mac  bytesReceivedOK  ETV
vector 79  homenet.room_C.eth[2].mac  framesPassedToHL  ETV
vector 30  homenet.room_A.eth[2].mac  framesSent  ETV
vector 32  homenet.room_A.eth[2].mac  bytesSent  ETV
vector 353  homenet.living_room.eth[3].mac  framesReceivedOK  ETV
vector 355  homenet.living_room.eth[3].mac  bytesReceivedOK  ETV
vector 359  homenet.living_room.eth[3].mac  framesPassedToHL  ETV
vector 184  homenet.office.eth[1].mac  framesSent  ETV
vector 186  homenet.office.eth[1].mac  bytesSent  ETV
vector 157  homenet.kitchen.eth[2].mac  framesReceivedOK  ETV
vector 159  homenet.kitchen.eth[2].mac  bytesReceivedOK  ETV
vector 163  homenet.kitchen.eth[2].mac  framesPassedToHL  ETV
vector 282  homenet.room_B.eth[3].mac  framesSent  ETV
vector 284  homenet.room_B.eth[3].mac  bytesSent  ETV
vector 339  homenet.living_room.eth[2].mac  framesReceivedOK  ETV
vector 341  homenet.living_room.eth[2].mac  bytesReceivedOK  ETV
vector 345  homenet.living_room.eth[2].mac  framesPassedToHL  ETV
vector 44  homenet.room_C.eth[0].mac  framesSent  ETV
vector 46  homenet.room_C.eth[0].mac  bytesSent  ETV
vector 413  homenet.Host1.eth[0].mac  framesReceivedOK  ETV
vector 415  homenet.Host1.eth[0].mac  bytesReceivedOK  ETV
vector 419  homenet.Host1.eth[0].mac  framesPassedToHL  ETV
vector 2  homenet.room_A.eth[0].mac  framesSent  ETV
vector 4  homenet.room_A.eth[0].mac  bytesSent  ETV
vector 269  homenet.room_B.eth[2].mac  framesReceivedOK  ETV
vector 271  homenet.room_B.eth[2].mac  bytesReceivedOK  ETV
vector 275  homenet.room_B.eth[2].mac  framesPassedToHL  ETV
vector 198  homenet.office.eth[2].mac  framesSent  ETV
vector 200  homenet.office.eth[2].mac  bytesSent  ETV
vector 367  homenet.living_room.eth[4].mac  framesReceivedOK  ETV
vector 369  homenet.living_room.eth[4].mac  bytesReceivedOK  ETV
vector 373  homenet.living_room.eth[4].mac  framesPassedToHL  ETV
vector 240  homenet.room_B.eth[0].mac  framesSent  ETV
vector 242  homenet.room_B.eth[0].mac  bytesSent  ETV
vector 563  homenet.Emitter0.stats.mac[1]  framesReceivedOK  ETV
vector 565  homenet.Emitter0.stats.mac[1]  bytesReceivedOK  ETV
vector 569  homenet.Emitter0.stats.mac[1]  framesPassedToHL  ETV
vector 549  homenet.Emitter0.stats.relayUnit  "buffer level"  ETV
vector 550  homenet.Emitter0.stats.mac[0]  framesSent  ETV
vector 552  homenet.Emitter0.stats.mac[0]  bytesSent  ETV
vector 397  homenet.Host0.eth[0].mac  framesReceivedOK  ETV
vector 399  homenet.Host0.eth[0].mac  bytesReceivedOK  ETV
vector 403  homenet.Host0.eth[0].mac  framesPassedToHL  ETV
vector 86  homenet.garage.eth[0].mac  framesSent  ETV
vector 88  homenet.garage.eth[0].mac  bytesSent  ETV
vector 477  homenet.Host5.eth[0].mac  framesReceivedOK  ETV
vector 479  homenet.Host5.eth[0].mac  bytesReceivedOK  ETV
vector 483  homenet.Host5.eth[0].mac  framesPassedToHL  ETV
vector 72  homenet.room_C.eth[2].mac  framesSent  ETV
vector 74  homenet.room_C.eth[2].mac  bytesSent  ETV
vector 227  homenet.office.eth[4].mac  framesReceivedOK  ETV
vector 229  homenet.office.eth[4].mac  bytesReceivedOK  ETV
vector 233  homenet.office.eth[4].mac  framesPassedToHL  ETV
vector 310  homenet.living_room.eth[0].mac  framesSent  ETV
vector 312  homenet.living_room.eth[0].mac  bytesSent  ETV
vector 461  homenet.Host4.eth[0].mac  framesReceivedOK  ETV
vector 463  homenet.Host4.eth[0].mac  bytesReceivedOK  ETV
vector 467  homenet.Host4.eth[0].mac  framesPassedToHL  ETV
vector 100  homenet.garage.eth[1].mac  framesSent  ETV
vector 102  homenet.garage.eth[1].mac  bytesSent  ETV
vector 297  homenet.room_B.eth[4].mac  framesReceivedOK  ETV
vector 299  homenet.room_B.eth[4].mac  bytesReceivedOK  ETV
vector 303  homenet.room_B.eth[4].mac  framesPassedToHL  ETV
vector 212  homenet.office.eth[3].mac  framesSent  ETV
vector 214  homenet.office.eth[3].mac  bytesSent  ETV
vector 17  homenet.room_A.eth[1].mac  framesReceivedOK  ETV
vector 19  homenet.room_A.eth[1].mac  bytesReceivedOK  ETV
vector 23  homenet.room_A.eth[1].mac  framesPassedToHL  ETV
vector 352  homenet.living_room.eth[3].mac  framesSent  ETV
vector 354  homenet.living_room.eth[3].mac  bytesSent  ETV
vector 31  homenet.room_A.eth[2].mac  framesReceivedOK  ETV
vector 33  homenet.room_A.eth[2].mac  bytesReceivedOK  ETV
vector 37  homenet.room_A.eth[2].mac  framesPassedToHL  ETV
vector 396  homenet.Host0.eth[0].mac  framesSent  ETV
vector 398  homenet.Host0.eth[0].mac  bytesSent  ETV
vector 412  homenet.Host1.eth[0].mac  framesSent  ETV
vector 414  homenet.Host1.eth[0].mac  bytesSent  ETV
vector 428  homenet.Host2.eth[0].mac  framesSent  ETV
vector 430  homenet.Host2.eth[0].mac  bytesSent  ETV
vector 444  homenet.Host3.eth[0].mac  framesSent  ETV
vector 446  homenet.Host3.eth[0].mac  bytesSent  ETV
vector 460  homenet.Host4.eth[0].mac  framesSent  ETV
vector 462  homenet.Host4.eth[0].mac  bytesSent  ETV
vector 476  homenet.Host5.eth[0].mac  framesSent  ETV
vector 478  homenet.Host5.eth[0].mac  bytesSent  ETV
vector 551  homenet.Emitter0.stats.mac[0]  framesReceivedOK  ETV
vector 553  homenet.Emitter0.stats.mac[0]  bytesReceivedOK  ETV
vector 557  homenet.Emitter0.stats.mac[0]  framesPassedToHL  ETV
vector 518  homenet.Receptor3.stats.mac[1]  framesReceivedOK  ETV
vector 520  homenet.Receptor3.stats.mac[1]  bytesReceivedOK  ETV
vector 524  homenet.Receptor3.stats.mac[1]  framesPassedToHL  ETV
vector 504  homenet.Receptor3.stats.relayUnit  "buffer level"  ETV
vector 45  homenet.room_C.eth[0].mac  framesReceivedOK  ETV
vector 47  homenet.room_C.eth[0].mac  bytesReceivedOK  ETV
vector 51  homenet.room_C.eth[0].mac  framesPassedToHL  ETV
vector 171  homenet.office.eth[0].mac  framesReceivedOK  ETV
vector 173  homenet.office.eth[0].mac  bytesReceivedOK  ETV
vector 177  homenet.office.eth[0].mac  framesPassedToHL  ETV
vector 311  homenet.living_room.eth[0].mac  framesReceivedOK  ETV
vector 313  homenet.living_room.eth[0].mac  bytesReceivedOK  ETV
vector 317  homenet.living_room.eth[0].mac  framesPassedToHL  ETV
vector 87  homenet.garage.eth[0].mac  framesReceivedOK  ETV
vector 89  homenet.garage.eth[0].mac  bytesReceivedOK  ETV
vector 93  homenet.garage.eth[0].mac  framesPassedToHL  ETV
vector 505  homenet.Receptor3.stats.mac[0]  framesSent  ETV
vector 507  homenet.Receptor3.stats.mac[0]  bytesSent  ETV
vector 562  homenet.Emitter0.stats.mac[1]  framesSent  ETV
vector 564  homenet.Emitter0.stats.mac[1]  bytesSent  ETV
vector 129  homenet.kitchen.eth[0].mac  framesReceivedOK  ETV
vector 131  homenet.kitchen.eth[0].mac  bytesReceivedOK  ETV
vector 135  homenet.kitchen.eth[0].mac  framesPassedToHL  ETV
vector 241  homenet.room_B.eth[0].mac  framesReceivedOK  ETV
vector 243  homenet.room_B.eth[0].mac  bytesReceivedOK  ETV
vector 247  homenet.room_B.eth[0].mac  framesPassedToHL  ETV
vector 254  homenet.room_B.eth[1].mac  framesSent  ETV
vector 256  homenet.room_B.eth[1].mac  bytesSent  ETV
vector 59  homenet.room_C.eth[1].mac  framesReceivedOK  ETV
vector 61  homenet.room_C.eth[1].mac  bytesReceivedOK  ETV
vector 65  homenet.room_C.eth[1].mac  framesPassedToHL  ETV
vector 324  homenet.living_room.eth[1].mac  framesSent  ETV
vector 326  homenet.living_room.eth[1].mac  bytesSent  ETV
vector 115  homenet.garage.eth[2].mac  framesReceivedOK  ETV
vector 117  homenet.garage.eth[2].mac  bytesReceivedOK  ETV
vector 121  homenet.garage.eth[2].mac  framesPassedToHL  ETV
vector 380  homenet.living_room.eth[5].mac  framesSent  ETV
vector 382  homenet.living_room.eth[5].mac  bytesSent  ETV
vector 143  homenet.kitchen.eth[1].mac  framesReceivedOK  ETV
vector 145  homenet.kitchen.eth[1].mac  bytesReceivedOK  ETV
vector 149  homenet.kitchen.eth[1].mac  framesPassedToHL  ETV
vector 296  homenet.room_B.eth[4].mac  framesSent  ETV
vector 298  homenet.room_B.eth[4].mac  bytesSent  ETV
vector 101  homenet.garage.eth[1].mac  framesReceivedOK  ETV
vector 103  homenet.garage.eth[1].mac  bytesReceivedOK  ETV
vector 107  homenet.garage.eth[1].mac  framesPassedToHL  ETV
vector 170  homenet.office.eth[0].mac  framesSent  ETV
vector 172  homenet.office.eth[0].mac  bytesSent  ETV
vector 429  homenet.Host2.eth[0].mac  framesReceivedOK  ETV
vector 431  homenet.Host2.eth[0].mac  bytesReceivedOK  ETV
vector 435  homenet.Host2.eth[0].mac  framesPassedToHL  ETV
vector 16  homenet.room_A.eth[1].mac  framesSent  ETV
vector 18  homenet.room_A.eth[1].mac  bytesSent  ETV
vector 213  homenet.office.eth[3].mac  framesReceivedOK  ETV
vector 215  homenet.office.eth[3].mac  bytesReceivedOK  ETV
vector 219  homenet.office.eth[3].mac  framesPassedToHL  ETV
vector 366  homenet.living_room.eth[4].mac  framesSent  ETV
vector 368  homenet.living_room.eth[4].mac  bytesSent  ETV
vector 199  homenet.office.eth[2].mac  framesReceivedOK  ETV
vector 201  homenet.office.eth[2].mac  bytesReceivedOK  ETV
vector 205  homenet.office.eth[2].mac  framesPassedToHL  ETV
vector 338  homenet.living_room.eth[2].mac  framesSent  ETV
vector 340  homenet.living_room.eth[2].mac  bytesSent  ETV
vector 283  homenet.room_B.eth[3].mac  framesReceivedOK  ETV
vector 285  homenet.room_B.eth[3].mac  bytesReceivedOK  ETV
vector 289  homenet.room_B.eth[3].mac  framesPassedToHL  ETV
vector 268  homenet.room_B.eth[2].mac  framesSent  ETV
vector 270  homenet.room_B.eth[2].mac  bytesSent  ETV
vector 3  homenet.room_A.eth[0].mac  framesReceivedOK  ETV
vector 5  homenet.room_A.eth[0].mac  bytesReceivedOK  ETV
vector 9  homenet.room_A.eth[0].mac  framesPassedToHL  ETV
vector 128  homenet.kitchen.eth[0].mac  framesSent  ETV
vector 130  homenet.kitchen.eth[0].mac  bytesSent  ETV
vector 506  homenet.Receptor3.stats.mac[0]  framesReceivedOK  ETV
vector 508  homenet.Receptor3.stats.mac[0]  bytesReceivedOK  ETV
vector 512  homenet.Receptor3.stats.mac[0]  framesPassedToHL  ETV
vector 517  homenet.Receptor3.stats.mac[1]  framesSent  ETV
vector 519  homenet.Receptor3.stats.mac[1]  bytesSent  ETV
vector 445  homenet.Host3.eth[0].mac  framesReceivedOK  ETV
vector 447  homenet.Host3.eth[0].mac  bytesReceivedOK  ETV
vector 451  homenet.Host3.eth[0].mac  framesPassedToHL  ETV
vector 58  homenet.room_C.eth[1].mac  framesSent  ETV
vector 60  homenet.room_C.eth[1].mac  bytesSent  ETV
vector 255  homenet.room_B.eth[1].mac  framesReceivedOK  ETV
vector 257  homenet.room_B.eth[1].mac  bytesReceivedOK  ETV
vector 261  homenet.room_B.eth[1].mac  framesPassedToHL  ETV
vector 142  homenet.kitchen.eth[1].mac  framesSent  ETV
vector 144  homenet.kitchen.eth[1].mac  bytesSent  ETV
vector 381  homenet.living_room.eth[5].mac  framesReceivedOK  ETV
vector 383  homenet.living_room.eth[5].mac  bytesReceivedOK  ETV
vector 387  homenet.living_room.eth[5].mac  framesPassedToHL  ETV
vector 114  homenet.garage.eth[2].mac  framesSent  ETV
vector 116  homenet.garage.eth[2].mac  bytesSent  ETV
vector 325  homenet.living_room.eth[1].mac  framesReceivedOK  ETV
vector 327  homenet.living_room.eth[1].mac  bytesReceivedOK  ETV
vector 331  homenet.living_room.eth[1].mac  framesPassedToHL  ETV
vector 182  homenet.office.eth[1].queue  "queue length"  ETV
vector 154  homenet.kitchen.eth[2].queue  "queue length"  ETV
vector 70  homenet.room_C.eth[2].queue  "queue length"  ETV
vector 224  homenet.office.eth[4].queue  "queue length"  ETV
vector 350  homenet.living_room.eth[3].queue  "queue length"  ETV
vector 28  homenet.room_A.eth[2].queue  "queue length"  ETV
vector 410  homenet.Host1.eth[0].queue  "queue length"  ETV
vector 411  homenet.Host1.eth[0].queue  drops  ETV
vector 426  homenet.Host2.eth[0].queue  "queue length"  ETV
vector 427  homenet.Host2.eth[0].queue  drops  ETV
vector 458  homenet.Host4.eth[0].queue  "queue length"  ETV
vector 459  homenet.Host4.eth[0].queue  drops  ETV
vector 474  homenet.Host5.eth[0].queue  "queue length"  ETV
vector 475  homenet.Host5.eth[0].queue  drops  ETV
vector 394  homenet.Host0.eth[0].queue  "queue length"  ETV
vector 395  homenet.Host0.eth[0].queue  drops  ETV
vector 442  homenet.Host3.eth[0].queue  "queue length"  ETV
vector 443  homenet.Host3.eth[0].queue  drops  ETV
vector 56  homenet.room_C.eth[1].queue  "queue length"  ETV
vector 210  homenet.office.eth[3].queue  "queue length"  ETV
vector 98  homenet.garage.eth[1].queue  "queue length"  ETV
vector 280  homenet.room_B.eth[3].queue  "queue length"  ETV
vector 14  homenet.room_A.eth[1].queue  "queue length"  ETV
vector 281  homenet.room_B.eth[3].queue  drops  ETV
vector 322  homenet.living_room.eth[1].queue  "queue length"  ETV
vector 42  homenet.room_C.eth[0].queue  "queue length"  ETV
vector 422  homenet.Host1.eth[0].mac  collisions  ETV
vector 54  homenet.room_C.eth[0].mac  collisions  ETV
vector 423  homenet.Host1.eth[0].mac  backoffs  ETV
vector 55  homenet.room_C.eth[0].mac  backoffs  ETV
vector 84  homenet.garage.eth[0].queue  "queue length"  ETV
vector 486  homenet.Host5.eth[0].mac  collisions  ETV
vector 96  homenet.garage.eth[0].mac  collisions  ETV
vector 487  homenet.Host5.eth[0].mac  backoffs  ETV
vector 97  homenet.garage.eth[0].mac  backoffs  ETV
vector 308  homenet.living_room.eth[0].queue  "queue length"  ETV
vector 470  homenet.Host4.eth[0].mac  collisions  ETV
vector 320  homenet.living_room.eth[0].mac  collisions  ETV
vector 471  homenet.Host4.eth[0].mac  backoffs  ETV
vector 321  homenet.living_room.eth[0].mac  backoffs  ETV
vector 529  homenet.Receptor3.stats.thruputMeter  "thruput (bit/sec)"  ETV
vector 530  homenet.Receptor3.stats.thruputMeter  packet/sec  ETV
vector 532  homenet.Receptor3.stats.thruputMeter  jitterVector  ETV
vector 531  homenet.Receptor3.stats.thruputMeter  pkDelayVector  ETV
vector 126  homenet.kitchen.eth[0].queue  "queue length"  ETV
vector 515  homenet.Receptor3.stats.mac[0]  collisions  ETV
vector 138  homenet.kitchen.eth[0].mac  collisions  ETV
vector 516  homenet.Receptor3.stats.mac[0]  backoffs  ETV
vector 139  homenet.kitchen.eth[0].mac  backoffs  ETV
vector 351  homenet.living_room.eth[3].queue  drops  ETV
vector 336  homenet.living_room.eth[2].queue  "queue length"  ETV
vector 337  homenet.living_room.eth[2].queue  drops  ETV
vector 238  homenet.room_B.eth[0].queue  "queue length"  ETV
vector 572  homenet.Emitter0.stats.mac[1]  collisions  ETV
vector 250  homenet.room_B.eth[0].mac  collisions  ETV
vector 573  homenet.Emitter0.stats.mac[1]  backoffs  ETV
vector 251  homenet.room_B.eth[0].mac  backoffs  ETV
vector 168  homenet.office.eth[0].queue  "queue length"  ETV
vector 372  homenet.living_room.eth[4].mac  framesDroppedNotForUs  ETV
vector 288  homenet.room_B.eth[3].mac  framesDroppedNotForUs  ETV
vector 330  homenet.living_room.eth[1].mac  framesDroppedNotForUs  ETV
vector 386  homenet.living_room.eth[5].mac  framesDroppedNotForUs  ETV
vector 148  homenet.kitchen.eth[1].mac  framesDroppedNotForUs  ETV
2	335	0.09027874745	1
2	2269	0.109599454095	2
2	2297	0.109653094093	3
2	2326	0.109706734091	4
2	2337	0.109716734091	5
2	2401	0.109770374089	6
2	5243	5.089297793427	7
2	5374	5.089337793427	8
2	5571	5.089411433425	9
2	5883	5.09834124181	10
2	6051	5.098404881808	11
2	6192	5.099413221364	12
2	6687	5.099536861362	13
2	24644	6.000016719999	14
2	65117	10.089264153429	15
2	65380	10.089350973428	16
2	65623	10.089467793427	17
2	65864	10.09027874745	18
2	66041	10.09832124181	19
2	66223	10.098394881808	20
2	66384	10.099403221364	21
2	66492	10.099440041363	22
3	2256	0.109572734096	1
3	2284	0.109626374094	2
3	2312	0.109680014092	3
3	2353	0.10973365409	4
3	2365	0.10974365409	5
3	2385	0.10976365409	6
3	2407	0.10977365409	7
3	5525	5.089384713426	8
3	5649	5.089514713426	9
3	5974	5.098378161809	10
3	6057	5.098408161809	11
3	6576	5.099510141363	12
3	6805	5.099560141363	13
3	7134	5.099680141363	14
3	24656	6.000016819999	15
3	65545	10.089441073428	16
3	65630	10.089471073428	17
3	65677	10.089521073428	18
3	66161	10.098368161809	19
3	66230	10.098398161809	20
3	66433	10.099423321364	21
3	66500	10.099443321364	22
3	66671	10.099503321364	23
3	66708	10.099513321364	24
3	67421	10.109572734096	25
4	335	0.09027874745	64
4	2269	0.109599454095	128
4	2297	0.109653094093	192
4	2326	0.109706734091	256
4	2337	0.109716734091	320
4	2401	0.109770374089	384
4	5243	5.089297793427	448
4	5374	5.089337793427	512
4	5571	5.089411433425	576
4	5883	5.09834124181	640
4	6051	5.098404881808	704
4	6192	5.099413221364	768
4	6687	5.099536861362	832
4	24644	6.000016719999	896
4	65117	10.089264153429	960
4	65380	10.089350973428	1024
4	65623	10.089467793427	1088
4	65864	10.09027874745	1152
4	66041	10.09832124181	1216
4	66223	10.098394881808	1280
4	66384	10.099403221364	1344
4	66492	10.099440041363	1408
5	2256	0.109572734096	64
5	2284	0.109626374094	128
5	2312	0.109680014092	192
5	2353	0.10973365409	256
5	2365	0.10974365409	320
5	2385	0.10976365409	384
5	2407	0.10977365409	448
5	5525	5.089384713426	512
5	5649	5.089514713426	576
5	5974	5.098378161809	640
5	6057	5.098408161809	704
5	6576	5.099510141363	768
5	6805	5.099560141363	832
5	7134	5.099680141363	896
5	24656	6.000016819999	960
5	65545	10.089441073428	1024
5	65630	10.089471073428	1088
5	65677	10.089521073428	1152
5	66161	10.098368161809	1216
5	66230	10.098398161809	1280
5	66433	10.099423321364	1344
5	66500	10.099443321364	1408
5	66671	10.099503321364	1472
5	66708	10.099513321364	1536
5	67421	10.109572734096	1600
9	2256	0.109572734096	1
9	2284	0.109626374094	2
9	2312	0.109680014092	3
9	2353	0.10973365409	4
9	2365	0.10974365409	5
9	2385	0.10976365409	6
9	2407	0.10977365409	7
9	5525	5.089384713426	8
9	5649	5.089514713426	9
9	5974	5.098378161809	10
9	6057	5.098408161809	11
9	6576	5.099510141363	12
9	6805	5.099560141363	13
9	7134	5.099680141363	14
9	24656	6.000016819999	15
9	65545	10.089441073428	16
9	65630	10.089471073428	17
9	65677	10.089521073428	18
9	66161	10.098368161809	19
9	66230	10.098398161809	20
9	66433	10.099423321364	21
9	66500	10.099443321364	22
9	66671	10.099503321364	23
9	66708	10.099513321364	24
9	67421	10.109572734096	25
14	10095	5.100339819996	1
14	10096	5.100339819996	2
14	10097	5.100339819996	3
14	10098	5.100339819996	4
14	10099	5.100339819996	5
14	10100	5.100339819996	6
14	10101	5.100339819996	7
14	10102	5.100339819996	8
14	10103	5.100339819996	9
14	10118	5.100347659995	8
14	10132	5.100349819996	9
14	10137	5.100355499994	8
14	10158	5.100359819996	9
14	10159	5.100363339993	8
14	10194	5.100371179992	7
14	10223	5.100379019991	6
14	10248	5.10038685999	5
14	10268	5.100394699989	4
14	10295	5.100402539988	3
14	10330	5.100410379987	2
14	10366	5.100418219986	1
14	10401	5.100426059985	0
14	12328	5.100675699994	1
14	12329	5.100675699994	2
14	12330	5.100675699994	3
14	12331	5.100675699994	4
14	12332	5.100675699994	5
14	12333	5.100675699994	6
14	12403	5.100683539993	5
14	12421	5.100685699994	6
14	12451	5.100691379992	5
14	12490	5.100695699994	6
14	12497	5.100699219991	5
14	12548	5.100705699994	6
14	12552	5.10070705999	5
14	12600	5.100714899989	4
14	12608	5.100715699994	5
14	12647	5.100722739988	4
14	12695	5.100730579987	3
14	12738	5.100735699994	4
14	12742	5.100738419986	3
14	12787	5.100746259985	2
14	12832	5.100754099984	1
14	12842	5.100755699994	2
14	12875	5.100761939983	1
14	12908	5.100765699994	2
14	12931	5.100769779982	1
14	12980	5.100775699994	2
14	12994	5.100777619981	1
14	13050	5.10078545998	0
14	13058	5.100785699994	1
14	13125	5.100793299979	0
14	13138	5.100795699994	1
14	13179	5.100801139978	0
14	14800	5.101165579984	1
14	14801	5.101165579984	2
14	14802	5.101165579984	3
14	14803	5.101165579984	4
14	14804	5.101165579984	5
14	14831	5.101173419983	4
14	14844	5.101175579984	5
14	14859	5.101181259982	4
14	14908	5.101189099981	3
14	14958	5.101195579984	4
14	14963	5.10119693998	3
14	15012	5.101204779979	2
14	15061	5.101212619978	1
14	15091	5.101215579984	2
14	15101	5.101220459977	1
14	15169	5.101225579984	2
14	15170	5.101228299976	1
14	15260	5.101236139975	0
16	1230	0.10676142479	1
16	1258	0.106815064788	2
16	1287	0.106868704786	3
16	1298	0.106878704786	4
16	1364	0.106932344784	5
16	1386	0.106942344784	6
16	1491	0.107002344784	7
16	2054	0.108844410371	8
16	2201	0.10890123037	9
16	5413	5.089347793427	10
16	6214	5.099423221364	11
16	6741	5.099546861362	12
16	6838	5.099566861362	13
16	7251	5.099706861362	14
16	7430	5.099766861362	15
16	7630	5.099846861362	16
16	8640	5.100085419995	17
16	9486	5.100156539995	18
16	10118	5.100347659995	19
16	10137	5.100355499994	20
16	10159	5.100363339993	21
16	10194	5.100371179992	22
16	10223	5.100379019991	23
16	10248	5.10038685999	24
16	10268	5.100394699989	25
16	10295	5.100402539988	26
16	10330	5.100410379987	27
16	10366	5.100418219986	28
16	10401	5.100426059985	29
16	10433	5.100432779984	30
16	11713	5.100592419993	31
16	12403	5.100683539993	32
16	12451	5.100691379992	33
16	12497	5.100699219991	34
16	12552	5.10070705999	35
16	12600	5.100714899989	36
16	12647	5.100722739988	37
16	12695	5.100730579987	38
16	12742	5.100738419986	39
16	12787	5.100746259985	40
16	12832	5.100754099984	41
16	12875	5.100761939983	42
16	12931	5.100769779982	43
16	12994	5.100777619981	44
16	13050	5.10078545998	45
16	13125	5.100793299979	46
16	13179	5.100801139978	47
16	13230	5.100808979977	48
16	14229	5.101072299983	49
16	14831	5.101173419983	50
16	14859	5.101181259982	51
16	14908	5.101189099981	52
16	14963	5.10119693998	53
16	15012	5.101204779979	54
16	15061	5.101212619978	55
16	15101	5.101220459977	56
16	15170	5.101228299976	57
16	15260	5.101236139975	58
16	15323	5.101243979974	59
16	15375	5.101253419983	60
16	15470	5.101273419983	61
16	15531	5.101283419983	62
16	15691	5.101309299981	63
16	15808	5.101328299991	64
16	16074	5.101358299991	65
16	16132	5.101368299991	66
16	16199	5.101378299991	67
16	16442	5.101408299991	68
16	16503	5.101418299991	69
16	16556	5.101428299991	70
16	16724	5.101464979976	71
16	16927	5.10273217997	72
16	16949	5.10274217997	73
16	16982	5.10275217997	74
16	17016	5.10276217997	75
16	17051	5.10277217997	76
16	17224	5.106992344784	77
16	17539	5.200063819997	78
16	17611	5.200089599995	79
16	17687	5.200109699995	80
16	17804	5.200135779993	81
16	18041	5.200201659991	82
16	18083	5.20021959999	83
16	18435	5.300063819997	84
16	18507	5.300089599995	85
16	18583	5.300109699995	86
16	18700	5.300135779993	87
16	18937	5.300201659991	88
16	18979	5.30021959999	89
16	19331	5.400063819997	90
16	19403	5.400089599995	91
16	19479	5.400109699995	92
16	19596	5.400135779993	93
16	19833	5.400201659991	94
16	19875	5.40021959999	95
16	20227	5.500063819997	96
16	20299	5.500089599995	97
16	20375	5.500109699995	98
16	20492	5.500135779993	99
16	20729	5.500201659991	100
16	20771	5.50021959999	101
16	21123	5.600063819997	102
16	21195	5.600089599995	103
16	21271	5.600109699995	104
16	21388	5.600135779993	105
16	21625	5.600201659991	106
16	21667	5.60021959999	107
16	22019	5.700063819997	108
16	22091	5.700089599995	109
16	22167	5.700109699995	110
16	22284	5.700135779993	111
16	22521	5.700201659991	112
16	22563	5.70021959999	113
16	22915	5.800063819997	114
16	22987	5.800089599995	115
16	23063	5.800109699995	116
16	23180	5.800135779993	117
16	23417	5.800201659991	118
16	23459	5.80021959999	119
16	23811	5.900063819997	120
16	23883	5.900089599995	121
16	23959	5.900109699995	122
16	24076	5.900135779993	123
16	24313	5.900201659991	124
16	24355	5.90021959999	125
16	24764	6.000026719999	126
16	24998	6.000095779998	127
16	25134	6.000155779998	128
16	25223	6.000175779998	129
16	25368	6.000211859996	130
16	25498	6.000245679993	131
16	25587	6.000283419992	132
16	25932	6.100063819997	133
16	26012	6.100089599995	134
16	26095	6.100109699995	135
16	26693	6.100243259989	136
16	26763	6.100257099987	137
16	26913	6.100307139983	138
16	27019	6.100351899981	139
16	27348	6.200062699997	140
16	27387	6.200077359995	141
16	27456	6.200098479995	142
16	27552	6.200127359995	143
16	27663	6.200163239993	144
16	27750	6.200187999991	145
16	27786	6.200196879991	146
16	27915	6.200232759989	147
16	28075	6.200283139988	148
16	28242	6.200360599983	149
16	28552	6.300063819997	150
16	28624	6.300089599995	151
16	28700	6.300109699995	152
16	28817	6.300135779993	153
16	29054	6.300201659991	154
16	29096	6.30021959999	155
16	29448	6.400063819997	156
16	29520	6.400089599995	157
16	29596	6.400109699995	158
16	29713	6.400135779993	159
16	29950	6.400201659991	160
16	29992	6.40021959999	161
16	30344	6.500063819997	162
16	30416	6.500089599995	163
16	30492	6.500109699995	164
16	30609	6.500135779993	165
16	30846	6.500201659991	166
16	30888	6.50021959999	167
16	31240	6.600063819997	168
16	31312	6.600089599995	169
16	31388	6.600109699995	170
16	31505	6.600135779993	171
16	31742	6.600201659991	172
16	31784	6.60021959999	173
16	32136	6.700063819997	174
16	32208	6.700089599995	175
16	32284	6.700109699995	176
16	32401	6.700135779993	177
16	32638	6.700201659991	178
16	32680	6.70021959999	179
16	33032	6.800063819997	180
16	33104	6.800089599995	181
16	33180	6.800109699995	182
16	33297	6.800135779993	183
16	33534	6.800201659991	184
16	33576	6.80021959999	185
16	33928	6.900063819997	186
16	34000	6.900089599995	187
16	34076	6.900109699995	188
16	34193	6.900135779993	189
16	34430	6.900201659991	190
16	34472	6.90021959999	191
16	34859	7.000063819997	192
16	34931	7.000089599995	193
16	35007	7.000109699995	194
16	35124	7.000135779993	195
16	35361	7.000201659991	196
16	35403	7.00021959999	197
16	35755	7.100063819997	198
16	35827	7.100089599995	199
16	35903	7.100109699995	200
16	36020	7.100135779993	201
16	36263	7.100201659991	202
16	36321	7.10021959999	203
16	36954	7.200085419995	204
16	37109	7.200130179993	205
16	37240	7.200173819991	206
16	37273	7.200184939991	207
16	37417	7.200228579989	208
16	37493	7.200249699989	209
16	37558	7.200269699989	210
16	37599	7.200278579989	211
16	37721	7.200314459987	212
16	37818	7.200340339985	213
16	38004	7.200426859979	214
16	38349	7.300063819997	215
16	38421	7.300089599995	216
16	38497	7.300109699995	217
16	38614	7.300135779993	218
16	38851	7.300201659991	219
16	38893	7.30021959999	220
16	39245	7.400063819997	221
16	39317	7.400089599995	222
16	39393	7.400109699995	223
16	39510	7.400135779993	224
16	39747	7.400201659991	225
16	39789	7.40021959999	226
16	40141	7.500063819997	227
16	40213	7.500089599995	228
16	40289	7.500109699995	229
16	40406	7.500135779993	230
16	40643	7.500201659991	231
16	40685	7.50021959999	232
16	41037	7.600063819997	233
16	41109	7.600089599995	234
16	41185	7.600109699995	235
16	41302	7.600135779993	236
16	41539	7.600201659991	237
16	41581	7.60021959999	238
16	41933	7.700063819997	239
16	42005	7.700089599995	240
16	42081	7.700109699995	241
16	42198	7.700135779993	242
16	42435	7.700201659991	243
16	42477	7.70021959999	244
16	42829	7.800063819997	245
16	42901	7.800089599995	246
16	42977	7.800109699995	247
16	43094	7.800135779993	248
16	43331	7.800201659991	249
16	43373	7.80021959999	250
16	43725	7.900063819997	251
16	43797	7.900089599995	252
16	43873	7.900109699995	253
16	43990	7.900135779993	254
16	44227	7.900201659991	255
16	44269	7.90021959999	256
16	44656	8.000063819997	257
16	44728	8.000089599995	258
16	44804	8.000109699995	259
16	44921	8.000135779993	260
16	45158	8.000201659991	261
16	45200	8.00021959999	262
16	45552	8.100063819997	263
16	45624	8.100089599995	264
16	45700	8.100109699995	265
16	45817	8.100135779993	266
16	46054	8.100201659991	267
16	46096	8.10021959999	268
16	46448	8.200063819997	269
16	46528	8.200089599995	270
16	46611	8.200109699995	271
16	47202	8.200242139989	272
16	47279	8.200257099987	273
16	47342	8.200276899987	274
16	47631	8.200363779983	275
16	47685	8.200384899983	276
16	47701	8.200394899983	277
16	47765	8.200419659981	278
16	47783	8.200429659981	279
16	48172	8.300063819997	280
16	48244	8.300089599995	281
16	48320	8.300109699995	282
16	48437	8.300135779993	283
16	48674	8.300201659991	284
16	48716	8.30021959999	285
16	49068	8.400063819997	286
16	49140	8.400089599995	287
16	49216	8.400109699995	288
16	49333	8.400135779993	289
16	49570	8.400201659991	290
16	49612	8.40021959999	291
16	49964	8.500063819997	292
16	50036	8.500089599995	293
16	50112	8.500109699995	294
16	50229	8.500135779993	295
16	50466	8.500201659991	296
16	50508	8.50021959999	297
16	50860	8.600063819997	298
16	50932	8.600089599995	299
16	51008	8.600109699995	300
16	51125	8.600135779993	301
16	51362	8.600201659991	302
16	51404	8.60021959999	303
16	51756	8.700063819997	304
16	51828	8.700089599995	305
16	51904	8.700109699995	306
16	52021	8.700135779993	307
16	52258	8.700201659991	308
16	52300	8.70021959999	309
16	52652	8.800063819997	310
16	52724	8.800089599995	311
16	52800	8.800109699995	312
16	52917	8.800135779993	313
16	53154	8.800201659991	314
16	53196	8.80021959999	315
16	53548	8.900063819997	316
16	53620	8.900089599995	317
16	53696	8.900109699995	318
16	53813	8.900135779993	319
16	54050	8.900201659991	320
16	54092	8.90021959999	321
16	54479	9.000063819997	322
16	54551	9.000089599995	323
16	54627	9.000109699995	324
16	54744	9.000135779993	325
16	54981	9.000201659991	326
16	55023	9.00021959999	327
16	55375	9.100063819997	328
16	55447	9.100089599995	329
16	55523	9.100109699995	330
16	55640	9.100135779993	331
16	55877	9.100201659991	332
16	55919	9.10021959999	333
16	56271	9.200063819997	334
16	56343	9.200089599995	335
16	56419	9.200109699995	336
16	56536	9.200135779993	337
16	56779	9.200201659991	338
16	56837	9.20021959999	339
16	57470	9.300085419995	340
16	57625	9.300130179993	341
16	57756	9.300173819991	342
16	57789	9.300184939991	343
16	57933	9.300228579989	344
16	58009	9.300249699989	345
16	58074	9.300269699989	346
16	58115	9.300278579989	347
16	58237	9.300314459987	348