version 2
run udp_streaming-0-20120515-16:23:12-4765
attr configname udp_streaming
attr datetime 20120515-16:23:12
attr experiment udp_streaming
attr inifile omnetpp.ini
attr iterationvars ""
attr iterationvars2 $repetition=0
attr measurement ""
attr network Homenet
attr processid 4765
attr repetition 0
attr replication #0
attr resultdir results
attr runnumber 0
attr seedset 0

vector 240  Homenet.room_B.eth[0].mac  framesSent  ETV
vector 242  Homenet.room_B.eth[0].mac  bytesSent  ETV
vector 532  Homenet.Emitter0.mac[1]  framesReceivedOK  ETV
vector 534  Homenet.Emitter0.mac[1]  bytesReceivedOK  ETV
vector 538  Homenet.Emitter0.mac[1]  framesPassedToHL  ETV
vector 518  Homenet.Emitter0.relayUnit  "buffer level"  ETV
vector 519  Homenet.Emitter0.mac[0]  framesSent  ETV
vector 521  Homenet.Emitter0.mac[0]  bytesSent  ETV
vector 397  Homenet.Host0.eth[0].mac  framesReceivedOK  ETV
vector 399  Homenet.Host0.eth[0].mac  bytesReceivedOK  ETV
vector 403  Homenet.Host0.eth[0].mac  framesPassedToHL  ETV
vector 310  Homenet.living_room.eth[0].mac  framesSent  ETV
vector 312  Homenet.living_room.eth[0].mac  bytesSent  ETV
vector 462  Homenet.Host4.eth[0].mac  framesReceivedOK  ETV
vector 464  Homenet.Host4.eth[0].mac  bytesReceivedOK  ETV
vector 468  Homenet.Host4.eth[0].mac  framesPassedToHL  ETV
vector 114  Homenet.garage.eth[2].mac  framesSent  ETV
vector 116  Homenet.garage.eth[2].mac  bytesSent  ETV
vector 325  Homenet.living_room.eth[1].mac  framesReceivedOK  ETV
vector 327  Homenet.living_room.eth[1].mac  bytesReceivedOK  ETV
vector 331  Homenet.living_room.eth[1].mac  framesPassedToHL  ETV
vector 268  Homenet.room_B.eth[2].mac  framesSent  ETV
vector 270  Homenet.room_B.eth[2].mac  bytesSent  ETV
vector 3  Homenet.room_A.eth[0].mac  framesReceivedOK  ETV
vector 5  Homenet.room_A.eth[0].mac  bytesReceivedOK  ETV
vector 9  Homenet.room_A.eth[0].mac  framesPassedToHL  ETV
vector 30  Homenet.room_A.eth[2].mac  framesSent  ETV
vector 32  Homenet.room_A.eth[2].mac  bytesSent  ETV
vector 353  Homenet.living_room.eth[3].mac  framesReceivedOK  ETV
vector 355  Homenet.living_room.eth[3].mac  bytesReceivedOK  ETV
vector 359  Homenet.living_room.eth[3].mac  framesPassedToHL  ETV
vector 366  Homenet.living_room.eth[4].mac  framesSent  ETV
vector 368  Homenet.living_room.eth[4].mac  bytesSent  ETV
vector 199  Homenet.office.eth[2].mac  framesReceivedOK  ETV
vector 201  Homenet.office.eth[2].mac  bytesReceivedOK  ETV
vector 205  Homenet.office.eth[2].mac  framesPassedToHL  ETV
vector 128  Homenet.kitchen.eth[0].mac  framesSent  ETV
vector 130  Homenet.kitchen.eth[0].mac  bytesSent  ETV
vector 491  Homenet.Receptor3.mac[0]  framesReceivedOK  ETV
vector 493  Homenet.Receptor3.mac[0]  bytesReceivedOK  ETV
vector 497  Homenet.Receptor3.mac[0]  framesPassedToHL  ETV
vector 489  Homenet.Receptor3.relayUnit  "buffer level"  ETV
vector 502  Homenet.Receptor3.mac[1]  framesSent  ETV
vector 504  Homenet.Receptor3.mac[1]  bytesSent  ETV
vector 446  Homenet.Host3.eth[0].mac  framesReceivedOK  ETV
vector 448  Homenet.Host3.eth[0].mac  bytesReceivedOK  ETV
vector 452  Homenet.Host3.eth[0].mac  framesPassedToHL  ETV
vector 86  Homenet.garage.eth[0].mac  framesSent  ETV
vector 88  Homenet.garage.eth[0].mac  bytesSent  ETV
vector 478  Homenet.Host5.eth[0].mac  framesReceivedOK  ETV
vector 480  Homenet.Host5.eth[0].mac  bytesReceivedOK  ETV
vector 484  Homenet.Host5.eth[0].mac  framesPassedToHL  ETV
vector 282  Homenet.room_B.eth[3].mac  framesSent  ETV
vector 284  Homenet.room_B.eth[3].mac  bytesSent  ETV
vector 339  Homenet.living_room.eth[2].mac  framesReceivedOK  ETV
vector 341  Homenet.living_room.eth[2].mac  bytesReceivedOK  ETV
vector 345  Homenet.living_room.eth[2].mac  framesPassedToHL  ETV
vector 16  Homenet.room_A.eth[1].mac  framesSent  ETV
vector 18  Homenet.room_A.eth[1].mac  bytesSent  ETV
vector 213  Homenet.office.eth[3].mac  framesReceivedOK  ETV
vector 215  Homenet.office.eth[3].mac  bytesReceivedOK  ETV
vector 219  Homenet.office.eth[3].mac  framesPassedToHL  ETV
vector 324  Homenet.living_room.eth[1].mac  framesSent  ETV
vector 326  Homenet.living_room.eth[1].mac  bytesSent  ETV
vector 115  Homenet.garage.eth[2].mac  framesReceivedOK  ETV
vector 117  Homenet.garage.eth[2].mac  bytesReceivedOK  ETV
vector 121  Homenet.garage.eth[2].mac  framesPassedToHL  ETV
vector 72  Homenet.room_C.eth[2].mac  framesSent  ETV
vector 74  Homenet.room_C.eth[2].mac  bytesSent  ETV
vector 227  Homenet.office.eth[4].mac  framesReceivedOK  ETV
vector 229  Homenet.office.eth[4].mac  bytesReceivedOK  ETV
vector 233  Homenet.office.eth[4].mac  framesPassedToHL  ETV
vector 44  Homenet.room_C.eth[0].mac  framesSent  ETV
vector 46  Homenet.room_C.eth[0].mac  bytesSent  ETV
vector 413  Homenet.Host1.eth[0].mac  framesReceivedOK  ETV
vector 415  Homenet.Host1.eth[0].mac  bytesReceivedOK  ETV
vector 419  Homenet.Host1.eth[0].mac  framesPassedToHL  ETV
vector 170  Homenet.office.eth[0].mac  framesSent  ETV
vector 172  Homenet.office.eth[0].mac  bytesSent  ETV
vector 429  Homenet.Host2.eth[0].mac  framesReceivedOK  ETV
vector 431  Homenet.Host2.eth[0].mac  bytesReceivedOK  ETV
vector 435  Homenet.Host2.eth[0].mac  framesPassedToHL  ETV
vector 156  Homenet.kitchen.eth[2].mac  framesSent  ETV
vector 158  Homenet.kitchen.eth[2].mac  bytesSent  ETV
vector 185  Homenet.office.eth[1].mac  framesReceivedOK  ETV
vector 187  Homenet.office.eth[1].mac  bytesReceivedOK  ETV
vector 191  Homenet.office.eth[1].mac  framesPassedToHL  ETV
vector 184  Homenet.office.eth[1].mac  framesSent  ETV
vector 186  Homenet.office.eth[1].mac  bytesSent  ETV
vector 157  Homenet.kitchen.eth[2].mac  framesReceivedOK  ETV
vector 159  Homenet.kitchen.eth[2].mac  bytesReceivedOK  ETV
vector 163  Homenet.kitchen.eth[2].mac  framesPassedToHL  ETV
vector 296  Homenet.room_B.eth[4].mac  framesSent  ETV
vector 298  Homenet.room_B.eth[4].mac  bytesSent  ETV
vector 101  Homenet.garage.eth[1].mac  framesReceivedOK  ETV
vector 103  Homenet.garage.eth[1].mac  bytesReceivedOK  ETV
vector 107  Homenet.garage.eth[1].mac  framesPassedToHL  ETV
vector 338  Homenet.living_room.eth[2].mac  framesSent  ETV
vector 340  Homenet.living_room.eth[2].mac  bytesSent  ETV
vector 283  Homenet.room_B.eth[3].mac  framesReceivedOK  ETV
vector 285  Homenet.room_B.eth[3].mac  bytesReceivedOK  ETV
vector 289  Homenet.room_B.eth[3].mac  framesPassedToHL  ETV
vector 380  Homenet.living_room.eth[5].mac  framesSent  ETV
vector 382  Homenet.living_room.eth[5].mac  bytesSent  ETV
vector 143  Homenet.kitchen.eth[1].mac  framesReceivedOK  ETV
vector 145  Homenet.kitchen.eth[1].mac  bytesReceivedOK  ETV
vector 149  Homenet.kitchen.eth[1].mac  framesPassedToHL  ETV
vector 254  Homenet.room_B.eth[1].mac  framesSent  ETV
vector 256  Homenet.room_B.eth[1].mac  bytesSent  ETV
vector 59  Homenet.room_C.eth[1].mac  framesReceivedOK  ETV
vector 61  Homenet.room_C.eth[1].mac  bytesReceivedOK  ETV
vector 65  Homenet.room_C.eth[1].mac  framesPassedToHL  ETV
vector 100  Homenet.garage.eth[1].mac  framesSent  ETV
vector 102  Homenet.garage.eth[1].mac  bytesSent  ETV
vector 297  Homenet.room_B.eth[4].mac  framesReceivedOK  ETV
vector 299  Homenet.room_B.eth[4].mac  bytesReceivedOK  ETV
vector 303  Homenet.room_B.eth[4].mac  framesPassedToHL  ETV
vector 2  Homenet.room_A.eth[0].mac  framesSent  ETV
vector 4  Homenet.room_A.eth[0].mac  bytesSent  ETV
vector 269  Homenet.room_B.eth[2].mac  framesReceivedOK  ETV
vector 271  Homenet.room_B.eth[2].mac  bytesReceivedOK  ETV
vector 275  Homenet.room_B.eth[2].mac  framesPassedToHL  ETV
vector 352  Homenet.living_room.eth[3].mac  framesSent  ETV
vector 354  Homenet.living_room.eth[3].mac  bytesSent  ETV
vector 31  Homenet.room_A.eth[2].mac  framesReceivedOK  ETV
vector 33  Homenet.room_A.eth[2].mac  bytesReceivedOK  ETV
vector 37  Homenet.room_A.eth[2].mac  framesPassedToHL  ETV
vector 212  Homenet.office.eth[3].mac  framesSent  ETV
vector 214  Homenet.office.eth[3].mac  bytesSent  ETV
vector 17  Homenet.room_A.eth[1].mac  framesReceivedOK  ETV
vector 19  Homenet.room_A.eth[1].mac  bytesReceivedOK  ETV
vector 23  Homenet.room_A.eth[1].mac  framesPassedToHL  ETV
vector 142  Homenet.kitchen.eth[1].mac  framesSent  ETV
vector 144  Homenet.kitchen.eth[1].mac  bytesSent  ETV
vector 381  Homenet.living_room.eth[5].mac  framesReceivedOK  ETV
vector 383  Homenet.living_room.eth[5].mac  bytesReceivedOK  ETV
vector 387  Homenet.living_room.eth[5].mac  framesPassedToHL  ETV
vector 226  Homenet.office.eth[4].mac  framesSent  ETV
vector 228  Homenet.office.eth[4].mac  bytesSent  ETV
vector 73  Homenet.room_C.eth[2].mac  framesReceivedOK  ETV
vector 75  Homenet.room_C.eth[2].mac  bytesReceivedOK  ETV
vector 79  Homenet.room_C.eth[2].mac  framesPassedToHL  ETV
vector 198  Homenet.office.eth[2].mac  framesSent  ETV
vector 200  Homenet.office.eth[2].mac  bytesSent  ETV
vector 367  Homenet.living_room.eth[4].mac  framesReceivedOK  ETV
vector 369  Homenet.living_room.eth[4].mac  bytesReceivedOK  ETV
vector 373  Homenet.living_room.eth[4].mac  framesPassedToHL  ETV
vector 58  Homenet.room_C.eth[1].mac  framesSent  ETV
vector 60  Homenet.room_C.eth[1].mac  bytesSent  ETV
vector 255  Homenet.room_B.eth[1].mac  framesReceivedOK  ETV
vector 257  Homenet.room_B.eth[1].mac  bytesReceivedOK  ETV
vector 261  Homenet.room_B.eth[1].mac  framesPassedToHL  ETV
vector 322  Homenet.living_room.eth[1].queue  "queue length"  ETV
vector 112  Homenet.garage.eth[2].queue  "queue length"  ETV
vector 182  Homenet.office.eth[1].queue  "queue length"  ETV
vector 154  Homenet.kitchen.eth[2].queue  "queue length"  ETV
vector 280  Homenet.room_B.eth[3].queue  "queue length"  ETV
vector 336  Homenet.living_room.eth[2].queue  "queue length"  ETV
vector 0  Homenet.room_A.eth[0].queue  "queue length"  ETV
vector 266  Homenet.room_B.eth[2].queue  "queue length"  ETV
vector 210  Homenet.office.eth[3].queue  "queue length"  ETV
vector 14  Homenet.room_A.eth[1].queue  "queue length"  ETV
vector 70  Homenet.room_C.eth[2].queue  "queue length"  ETV
vector 224  Homenet.office.eth[4].queue  "queue length"  ETV
vector 445  Homenet.Host3.eth[0].mac  framesSent  ETV
vector 447  Homenet.Host3.eth[0].mac  bytesSent  ETV
vector 503  Homenet.Receptor3.mac[1]  framesReceivedOK  ETV
vector 505  Homenet.Receptor3.mac[1]  bytesReceivedOK  ETV
vector 509  Homenet.Receptor3.mac[1]  framesPassedToHL  ETV
vector 490  Homenet.Receptor3.mac[0]  framesSent  ETV
vector 492  Homenet.Receptor3.mac[0]  bytesSent  ETV
vector 129  Homenet.kitchen.eth[0].mac  framesReceivedOK  ETV
vector 131  Homenet.kitchen.eth[0].mac  bytesReceivedOK  ETV
vector 135  Homenet.kitchen.eth[0].mac  framesPassedToHL  ETV
vector 396  Homenet.Host0.eth[0].mac  framesSent  ETV
vector 398  Homenet.Host0.eth[0].mac  bytesSent  ETV
vector 520  Homenet.Emitter0.mac[0]  framesReceivedOK  ETV
vector 522  Homenet.Emitter0.mac[0]  bytesReceivedOK  ETV
vector 526  Homenet.Emitter0.mac[0]  framesPassedToHL  ETV
vector 531  Homenet.Emitter0.mac[1]  framesSent  ETV
vector 533  Homenet.Emitter0.mac[1]  bytesSent  ETV
vector 241  Homenet.room_B.eth[0].mac  framesReceivedOK  ETV
vector 243  Homenet.room_B.eth[0].mac  bytesReceivedOK  ETV
vector 247  Homenet.room_B.eth[0].mac  framesPassedToHL  ETV
0	6064	5.107429787087	1
0	6070	5.107436507086	0
2	1078	0.107215587092	1
2	1106	0.10726922709	2
2	1135	0.107322867088	3
2	1146	0.107332867088	4
2	1211	0.107386507086	5
2	1269	0.107426507086	6
2	1769	0.111306736546	7
2	1813	0.111326736546	8
2	1852	0.111336736546	9
2	2555	0.114130769428	10
2	3404	5.094921503706	11
2	3568	5.094961503706	12
2	3853	5.095031503706	13
2	4180	5.095098323705	14
2	5340	5.095465143704	15
2	5535	5.095525143704	16
2	6054	5.107426507086	17
2	6070	5.107436507086	18
2	6093	5.107443227085	19
2	6590	6.000016719999	20
2	7436	10.094941503706	21
2	7714	10.095021503706	22
2	7952	10.095208323705	23
2	8330	10.107215587092	24
2	8369	10.107436507086	25
2	8612	11.000016719999	26
2	8881	15.095208323705	27
2	8903	15.095241963703	28
3	122	0.088982873438	1
3	1093	0.107242507091	2
3	1121	0.107296147089	3
3	1162	0.107349787087	4
3	1174	0.107359787087	5
3	1195	0.107379787087	6
3	1217	0.107389787087	7
3	1230	0.107399787087	8
3	1253	0.107419787087	9
3	3413	5.094924783707	10
3	3542	5.094954783707	11
3	3608	5.094974783707	12
3	3817	5.095024783707	13
3	4223	5.095104783707	14
3	4602	5.095214783707	15
3	5298	5.095455243704	16
3	5536	5.095525243704	17
3	6038	5.107419787087	18
3	6100	5.107443427085	19
3	6113	5.107450147084	20
3	6130	5.107473427085	21
3	6679	6.000026819999	22
3	7031	10.088982873438	23
3	7373	10.094924783707	24
3	7574	10.094974783707	25
3	7672	10.095004783707	26
3	8348	10.107419787087	27
3	8392	10.107453427085	28
3	8893	15.095225243704	29
4	1078	0.107215587092	64
4	1106	0.10726922709	128
4	1135	0.107322867088	192
4	1146	0.107332867088	256
4	1211	0.107386507086	320
4	1269	0.107426507086	384
4	1769	0.111306736546	448
4	1813	0.111326736546	512
4	1852	0.111336736546	576
4	2555	0.114130769428	640
4	3404	5.094921503706	704
4	3568	5.094961503706	768
4	3853	5.095031503706	832
4	4180	5.095098323705	896
4	5340	5.095465143704	960
4	5535	5.095525143704	1024
4	6054	5.107426507086	1088
4	6070	5.107436507086	1152
4	6093	5.107443227085	1216
4	6590	6.000016719999	1280
4	7436	10.094941503706	1344
4	7714	10.095021503706	1408
4	7952	10.095208323705	1472
4	8330	10.107215587092	1536
4	8369	10.107436507086	1600
4	8612	11.000016719999	1664
4	8881	15.095208323705	1728
4	8903	15.095241963703	1792
5	122	0.088982873438	64
5	1093	0.107242507091	128
5	1121	0.107296147089	192
5	1162	0.107349787087	256
5	1174	0.107359787087	320
5	1195	0.107379787087	384
5	1217	0.107389787087	448
5	1230	0.107399787087	512
5	1253	0.107419787087	576
5	3413	5.094924783707	640
5	3542	5.094954783707	704
5	3608	5.094974783707	768
5	3817	5.095024783707	832
5	4223	5.095104783707	896
5	4602	5.095214783707	960
5	5298	5.095455243704	1024
5	5536	5.095525243704	1088
5	6038	5.107419787087	1152
5	6100	5.107443427085	1216
5	6113	5.107450147084	1280
5	6130	5.107473427085	1344
5	6679	6.000026819999	1408
5	7031	10.088982873438	1472
5	7373	10.094924783707	1536
5	7574	10.094974783707	1600
5	7672	10.095004783707	1664
5	8348	10.107419787087	1728
5	8392	10.107453427085	1792
5	8893	15.095225243704	1856
9	122	0.088982873438	1
9	1093	0.107242507091	2
9	1121	0.107296147089	3
9	1162	0.107349787087	4
9	1174	0.107359787087	5
9	1195	0.107379787087	6
9	1217	0.107389787087	7
9	1230	0.107399787087	8
9	1253	0.107419787087	9
9	3413	5.094924783707	10
9	3542	5.094954783707	11
9	3608	5.094974783707	12
9	3817	5.095024783707	13
9	4223	5.095104783707	14
9	4602	5.095214783707	15
9	5298	5.095455243704	16
9	5536	5.095525243704	17
9	6038	5.107419787087	18
9	6100	5.107443427085	19
9	6113	5.107450147084	20
9	6130	5.107473427085	21
9	6679	6.000026819999	22
9	7031	10.088982873438	23
9	7373	10.094924783707	24
9	7574	10.094974783707	25
9	7672	10.095004783707	26
9	8348	10.107419787087	27
9	8392	10.107453427085	28
9	8893	15.095225243704	29
14	6225	5.111333656545	1
14	6234	5.111340376544	0
16	224	0.09252676747	1
16	1542	0.111075816552	2
16	1570	0.11112945655	3
16	1599	0.111183096548	4
16	1610	0.111193096548	5
16	1677	0.111246736546	6
16	1692	0.111256736546	7
16	1706	0.111266736546	8
16	1728	0.111276736546	9
16	1898	0.111346736546	10
16	3441	5.094931503706	11
16	3530	5.094951503706	12
16	3600	5.094971503706	13
16	3790	5.095021503706	14
16	3956	5.095051503706	15
16	4452	5.095168323705	16
16	4489	5.095178323705	17
16	4878	5.095318323705	18
16	5066	5.095378323705	19
16	5382	5.095475143704	20
16	5428	5.095485143704	21
16	6170	5.111306736546	22
16	6234	5.111340376544	23
16	6251	5.111347096543	24
16	6280	5.111370376544	25
16	6667	6.000026719999	26
16	7133	10.09252676747	27
16	7479	10.094951503706	28
16	7562	10.094971503706	29
16	7689	10.095011503706	30
16	7803	10.095078323705	31
16	8675	11.000026719999	32
17	1529	0.111049096553	1
17	1557	0.111102736551	2
17	1585	0.111156376549	3
17	1626	0.111210016547	4
17	1638	0.111220016547	5
17	1661	0.111240016547	6
17	1683	0.111250016547	7
17	1931	0.111353656545	8
17	2497	0.114104049429	9
17	2538	0.114124049429	10
17	3490	5.094941603706	11
17	3703	5.095001603706	12
17	4060	5.095071603706	13
17	4142	5.095091603706	14
17	4266	5.095111603706	15
17	4806	5.095291603706	16
17	4972	5.095341603706	17
17	5077	5.095381603706	18
17	5207	5.095431603706	19
17	5411	5.095481603706	20
17	5666	5.095571603706	21
17	6196	5.111323656545	22
17	6221	5.111333656545	23
17	6235	5.111340376544	24
17	6294	5.111377296543	25
17	6734	6.000036819999	26
17	7524	10.094961603706	27
17	7761	10.095051603706	28
17	7817	10.095091603706	29
17	7851	10.095141603706	30
17	7893	10.095181603706	31
17	8435	10.111049096553	32
18	224	0.09252676747	64
18	1542	0.111075816552	128
18	1570	0.11112945655	192
18	1599	0.111183096548	256
18	1610	0.111193096548	320
18	1677	0.111246736546	384
18	1692	0.111256736546	448
18	1706	0.111266736546	512
18	1728	0.111276736546	576
18	1898	0.111346736546	640
18	3441	5.094931503706	704
18	3530	5.094951503706	768
18	3600	5.094971503706	832
18	3790	5.095021503706	896
18	3956	5.095051503706	960
18	4452	5.095168323705	1024
18	4489	5.095178323705	1088
18	4878	5.095318323705	1152
18	5066	5.095378323705	1216
18	5382	5.095475143704	1280
18	5428	5.095485143704	1344
18	6170	5.111306736546	1408
18	6234	5.111340376544	1472
18	6251	5.111347096543	1536
18	6280	5.111370376544	1600
18	6667	6.000026719999	1664
18	7133	10.09252676747	1728
18	7479	10.094951503706	1792
18	7562	10.094971503706	1856
18	7689	10.095011503706	1920
18	7803	10.095078323705	1984
18	8675	11.000026719999	2048
19	1529	0.111049096553	64
19	1557	0.111102736551	128
19	1585	0.111156376549	192
19	1626	0.111210016547	256
19	1638	0.111220016547	320
19	1661	0.111240016547	384
19	1683	0.111250016547	448
19	1931	0.111353656545	512
19	2497	0.114104049429	576
19	2538	0.114124049429	640
19	3490	5.094941603706	704
19	3703	5.095001603706	768
19	4060	5.095071603706	832
19	4142	5.095091603706	896
19	4266	5.095111603706	960
19	4806	5.095291603706	1024
19	4972	5.095341603706	1088
19	5077	5.095381603706	1152
19	5207	5.095431603706	1216
19	5411	5.095481603706	1280
19	5666	5.095571603706	1344
19	6196	5.111323656545	1408
19	6221	5.111333656545	1472
19	6235	5.111340376544	1536
19	6294	5.111377296543	1600
19	6734	6.000036819999	1664
19	7524	10.094961603706	1728
19	7761	10.095051603706	1792
19	7817	10.095091603706	1856
19	7851	10.095141603706	1920
19	7893	10.095181603706	1984
19	8435	10.111049096553	2048
23	1529	0.111049096553	1
23	1557	0.111102736551	2
23	1585	0.111156376549	3
23	1626	0.111210016547	4
23	1638	0.111220016547	5
23	1661	0.111240016547	6
23	1683	0.111250016547	7
23	1931	0.111353656545	8
23	2497	0.114104049429	9
23	2538	0.114124049429	10
23	3490	5.094941603706	11
23	3703	5.095001603706	12
23	4060	5.095071603706	13
23	4142	5.095091603706	14
23	4266	5.095111603706	15
23	4806	5.095291603706	16
23	4972	5.095341603706	17
23	5077	5.095381603706	18
23	5207	5.095431603706	19
23	5411	5.095481603706	20
23	5666	5.095571603706	21
23	6196	5.111323656545	22
23	6221	5.111333656545	23
23	6235	5.111340376544	24
23	6294	5.111377296543	25
23	6734	6.000036819999	26
23	7524	10.094961603706	27
23	7761	10.095051603706	28
23	7817	10.095091603706	29
23	7851	10.095141603706	30
23	7893	10.095181603706	31
23	8435	10.111049096553	32
30	136	0.089245142813	1
30	1373	0.109599454095	2
30	1401	0.109653094093	3
30	1430	0.109706734091	4
30	1441	0.109716734091	5
30	1498	0.109770374089	6
30	1509	0.109780374089	7
30	1787	0.111316736546	8
30	1940	0.111356736546	9
30	1959	0.111366736546	10
30	2577	0.114140769428	11
30	3637	5.094981503706	12
30	4014	5.095061503706	13
30	4245	5.095108323705	14
30	4525	5.095188323705	15
30	4568	5.095198323705	16
30	4990	5.095345143704	17
30	5645	5.095565143704	18
30	6159	5.111296736546	19
30	6213	5.111330376544	20
30	6729	6.000036719999	21
30	7045	10.089245142813	22
30	7602	10.094981503706	23
30	7988	10.095218323705	24
30	8050	10.095245143704	25
30	8708	11.000036719999	26
31	1360	0.109572734096	1
31	1388	0.109626374094	2
31	1416	0.109680014092	3
31	1457	0.10973365409	4
31	1469	0.10974365409	5
31	1489	0.10976365409	6
31	2642	0.114167689427	7
31	3331	5.094894783707	8
31	4130	5.095088423705	9
31	4298	5.095118423705	10
31	4881	5.095318423705	11
31	4997	5.095348423705	12
31	5090	5.095388423705	13
31	5192	5.095428423705	14
31	5350	5.095468423705	15
31	5488	5.095508423705	16
31	5546	5.095528423705	17
31	5747	5.095688423705	18
31	6184	5.111313656545	19
31	6268	5.111357296543	20
31	6422	5.114147689427	21
31	6736	6.000036819999	22
31	7338	10.094914783707	23
31	7991	10.095218423705	24
31	8085	10.095268423705	25
31	8420	10.109572734096	26
32	136	0.089245142813	64
32	1373	0.109599454095	128
32	1401	0.109653094093	192
32	1430	0.109706734091	256
32	1441	0.109716734091	320
32	1498	0.109770374089	384
32	1509	0.109780374089	448
32	1787	0.111316736546	512
32	1940	0.111356736546	576
32	1959	0.111366736546	640
32	2577	0.114140769428	704
32	3637	5.094981503706	768
32	4014	5.095061503706	832
32	4245	5.095108323705	896
32	4525	5.095188323705	960
32	4568	5.095198323705	1024
32	4990	5.095345143704	1088
32	5645	5.095565143704	1152
32	6159	5.111296736546	1216
32	6213	5.111330376544	1280
32	6729	6.000036719999	1344
32	7045	10.089245142813	1408
32	7602	10.094981503706	1472
32	7988	10.095218323705	1536
32	8050	10.095245143704	1600
32	8708	11.000036719999	1664
33	1360	0.109572734096	64
33	1388	0.109626374094	128
33	1416	0.109680014092	192
33	1457	0.10973365409	256
33	1469	0.10974365409	320
33	1489	0.10976365409	384
33	2642	0.114167689427	448
33	3331	5.094894783707	512
33	4130	5.095088423705	576
33	4298	5.095118423705	640
33	4881	5.095318423705	704
33	4997	5.095348423705	768
33	5090	5.095388423705	832
33	5192	5.095428423705	896
33	5350	5.095468423705	960
33	5488	5.095508423705	1024
33	5546	5.095528423705	1088
33	5747	5.095688423705	1152
33	6184	5.111313656545	1216
33	6268	5.111357296543	1280
33	6422	5.114147689427	1344
33	6736	6.000036819999	1408
33	7338	10.094914783707	1472
33	7991	10.095218423705	1536
33	8085	10.095268423705	1600
33	8420	10.109572734096	1664
37	1360	0.109572734096	1
37	1388	0.109626374094	2
37	1416	0.109680014092	3
37	1457	0.10973365409	4
37	1469	0.10974365409	5
37	1489	0.10976365409	6
37	2642	0.114167689427	7
37	3331	5.094894783707	8
37	4130	5.095088423705	9
37	4298	5.095118423705	10
37	4881	5.095318423705	11
37	4997	5.095348423705	12
37	5090	5.095388423705	13
37	5192	5.095428423705	14
37	5350	5.095468423705	15
37	5488	5.095508423705	16
37	5546	5.095528423705	17
37	5747	5.095688423705	18
37	6184	5.111313656545	19
37	6268	5.111357296543	20
37	6422	5.114147689427	21
37	6736	6.000036819999	22
37	7338	10.094914783707	23
37	7991	10.095218423705	24
37	8085	10.095268423705	25
37	8420	10.109572734096	26
44	438	0.096859835972	1
44	8120	10.096859835972	2
46	438	0.096859835972	64
46	8120	10.096859835972	128
58	2862	0.119780008279	1
58	2890	0.119833648277	2
58	2919	0.119887288275	3
58	2930	0.119897288275	4
58	2988	0.119950928273	5
58	2999	0.119960928273	6
58	3012	0.119970928273	7
58	3739	5.095011503706	8
58	4246	5.095108323705	9
58	4742	5.095271503706	10
58	5392	5.095478323705	11
58	5440	5.095488323705	12
58	6591	6.000016719999	13
58	7364	10.094921503706	14
58	8509	10.119780008279	15
58	8613	11.000016719999	16
59	909	0.105651151584	1
59	2877	0.119806928278	2
59	2905	0.119860568276	3
59	2946	0.119914208274	4
59	2958	0.119924208274	5
59	2979	0.119944208274	6
59	3380	5.094914783707	7
59	3504	5.094944783707	8
59	3580	5.094964783707	9
59	3878	5.095034783707	10
59	4584	5.095204783707	11
59	4668	5.095244783707	12
59	4758	5.095274783707	13
59	5259	5.095445243704	14
59	5612	5.095555243704	15
59	6602	6.000016819999	16
59	7306	10.094904783707	17
59	7339	10.094914783707	18
59	7493	10.094954783707	19
59	7535	10.094964783707	20
59	8301	10.105651151584	21
60	2862	0.119780008279	64
60	2890	0.119833648277	128
60	2919	0.119887288275	192
60	2930	0.119897288275	256
60	2988	0.119950928273	320
60	2999	0.119960928273	384
60	3012	0.119970928273	448
60	3739	5.095011503706	512
60	4246	5.095108323705	576
60	4742	5.095271503706	640
60	5392	5.095478323705	704
60	5440	5.095488323705	768
60	6591	6.000016719999	832
60	7364	10.094921503706	896
60	8509	10.119780008279	960
60	8613	11.000016719999	1024
61	909	0.105651151584	64
61	2877	0.119806928278	128
61	2905	0.119860568276	192
61	2946	0.119914208274	256
61	2958	0.119924208274	320
61	2979	0.119944208274	384
61	3380	5.094914783707	448
61	3504	5.094944783707	512
61	3580	5.094964783707	576
61	3878	5.095034783707	640
61	4584	5.095204783707	704
61	4668	5.095244783707	768
61	4758	5.095274783707	832
61	5259	5.095445243704	896
61	5612	5.095555243704	960
61	6602	6.000016819999	1024
61	7306	10.094904783707	1088
61	7339	10.094914783707	1152
61	7493	10.094954783707	1216
61	7535	10.094964783707	1280
61	8301	10.105651151584	1344
65	909	0.105651151584	1
65	2877	0.119806928278	2
65	2905	0.119860568276	3
65	2946	0.119914208274	4
65	2958	0.119924208274	5
65	2979	0.119944208274	6
65	3380	5.094914783707	7
65	3504	5.094944783707	8
65	3580	5.094964783707	9
65	3878	5.095034783707	10
65	4584	5.095204783707	11
65	4668	5.095244783707	12
65	4758	5.095274783707	13
65	5259	5.095445243704	14
65	5612	5.095555243704	15
65	6602	6.000016819999	16
65	7306	10.094904783707	17
65	7339	10.094914783707	18
65	7493	10.094954783707	19
65	7535	10.094964783707	20
65	8301	10.105651151584	21
70	6332	5.114104049429	1
70	6337	5.114110769428	0
72	422	0.096363700611	1
72	2272	0.113879849434	2
72	2300	0.113933489432	3
72	2341	0.11398712943	4
72	2352	0.11399712943	5
72	2376	0.11401712943	6
72	2491	0.114100769428	7
72	3489	5.094941503706	8
72	3638	5.094981503706	9
72	3669	5.094991503706	10
72	3791	5.095021503706	11
72	3854	5.095031503706	12
72	4016	5.095061503706	13
72	4569	5.095198323705	14
72	6323	5.114100769428	15
72	6337	5.114110769428	16
72	6360	5.114117489427	17
72	6439	5.114154409426	18
72	6668	6.000026719999	19
72	7437	10.094941503706	20
72	7603	10.094981503706	21
72	7690	10.095011503706	22
72	7715	10.095021503706	23
72	8104	10.096363700611	24
73	2259	0.113853129435	1
73	2287	0.113906769433	2
73	2316	0.113960409431	3
73	2328	0.113970409431	4
73	2388	0.114024049429	5
73	2400	0.114034049429	6
73	2413	0.114044049429	7
73	2426	0.114054049429	8
73	2439	0.114064049429	9
73	2452	0.114074049429	10
73	2566	0.114134049429	11
73	3531	5.094951603706	12
73	4094	5.095081603706	13
73	4462	5.095171603706	14
73	4643	5.095231603706	15
73	5117	5.095401603706	16
73	5244	5.095441603706	17
73	6314	5.114094049429	18
73	6367	5.114117689427	19
73	6380	5.114124409426	20
73	6421	5.114147689427	21
73	6771	6.000046819999	22
73	7563	10.094971603706	23
73	8007	10.095221603706	24
73	8465	10.113853129435	25
73	8683	11.000026819999	26
74	422	0.096363700611	64
74	2272	0.113879849434	128
74	2300	0.113933489432	192
74	2341	0.11398712943	256
74	2352	0.11399712943	320
74	2376	0.11401712943	384
74	2491	0.114100769428	448
74	3489	5.094941503706	512
74	3638	5.094981503706	576
74	3669	5.094991503706	640
74	3791	5.095021503706	704
74	3854	5.095031503706	768
74	4016	5.095061503706	832
74	4569	5.095198323705	896
74	6323	5.114100769428	960
74	6337	5.114110769428	1024
74	6360	5.114117489427	1088
74	6439	5.114154409426	1152
74	6668	6.000026719999	1216
74	7437	10.094941503706	1280
74	7603	10.094981503706	1344
74	7690	10.095011503706	1408
74	7715	10.095021503706	1472
74	8104	10.096363700611	1536
75	2259	0.113853129435	64
75	2287	0.113906769433	128
75	2316	0.113960409431	192
75	2328	0.113970409431	256
75	2388	0.114024049429	320
75	2400	0.114034049429	384
75	2413	0.114044049429	448
75	2426	0.114054049429	512
75	2439	0.114064049429	576
75	2452	0.114074049429	640
75	2566	0.114134049429	704
75	3531	5.094951603706	768
75	4094	5.095081603706	832
75	4462	5.095171603706	896
75	4643	5.095231603706	960
75	5117	5.095401603706	1024
75	5244	5.095441603706	1088
75	6314	5.114094049429	1152
75	6367	5.114117689427	1216
75	6380	5.114124409426	1280
75	6421	5.114147689427	1344
75	6771	6.000046819999	1408
75	7563	10.094971603706	1472
75	8007	10.095221603706	1536
75	8465	10.113853129435	1600
75	8683	11.000026819999	1664
79	2259	0.113853129435	1
79	2287	0.113906769433	2
79	2316	0.113960409431	3
79	2328	0.113970409431	4
79	2388	0.114024049429	5
79	2400	0.114034049429	6
79	2413	0.114044049429	7
79	2426	0.114054049429	8
79	2439	0.114064049429	9
79	2452	0.114074049429	10
79	2566	0.114134049429	11
79	3531	5.094951603706	12
79	4094	5.095081603706	13
79	4462	5.095171603706	14
79	4643	5.095231603706	15
79	5117	5.095401603706	16
79	5244	5.095441603706	17
79	6314	5.114094049429	18
79	6367	5.114117689427	19
79	6380	5.114124409426	20
79	6421	5.114147689427	21
79	6771	6.000046819999	22
79	7563	10.094971603706	23
79	8007	10.095221603706	24
79	8465	10.113853129435	25
79	8683	11.000026819999	26
86	194	0.09027874745	1
86	7103	10.09027874745	2
88	194	0.09027874745	64
88	7103	10.09027874745	128
100	923	0.10676142479	1
100	951	0.106815064788	2
100	980	0.106868704786	3
100	991	0.106878704786	4
100	1055	0.106932344784	5
100	2658	0.114174409426	6
100	3285	5.094877863708	7
100	3792	5.095021503706	8
100	4015	5.095061503706	9
100	4137	5.095091503706	10
100	5221	5.095435143704	11
100	5455	5.095491963703	12
100	6105	5.107446507086	13
100	6465	5.114174409426	14
100	6592	6.000016719999	15
100	7244	10.094877863708	16
100	8017	10.095225143704	17
100	8315	10.10676142479	18
100	8380	10.107446507086	19
100	8479	10.114174409426	20
100	8966	15.107436507086	21
101	668	0.099096241008	1
101	938	0.106788344789	2
101	966	0.106841984787	3
101	1007	0.106895624785	4
101	1019	0.106905624785	5
101	1039	0.106925624785	6
101	1061	0.106935624785	7
101	1288	0.107439787087	8
101	1314	0.107459787087	9
101	1889	0.111343656545	10
101	2001	0.111383656545	11
101	2643	0.114167689427	12
101	3683	5.094994783707	13
101	3977	5.095054783707	14
101	4320	5.095124783707	15
101	4558	5.095194783707	16
101	4650	5.095234783707	17
101	4717	5.095264783707	18
101	5341	5.095465243704	19
101	5482	5.095505243704	20
101	6060	5.107429787087	21
101	6142	5.107483427085	22
101	6772	6.000046819999	23
101	7615	10.094984783707	24
101	8182	10.099096241008	25
101	8360	10.107429787087	26